LAMMPS (5 Jun 2019)
OMP_NUM_THREADS environment is not set. Defaulting to 1 thread. (src/comm.cpp:88)
  using 1 OpenMP thread(s) per MPI task


# ----------------- Init Section -----------------

include "system.in.init"
        units lj
        atom_style angle
        pair_style hybrid dpd 3.0 2.5 583235
        bond_style hybrid harmonic
        angle_style hybrid harmonic
        special_bonds lj 0.0 0.0 0.0


# ----------------- Atom Definition Section -----------------

read_data "system.data"
  orthogonal box = (0 0 0) to (40 40 40)
  1 by 1 by 1 MPI processor grid
  reading atoms ...
  2000 atoms
  scanning bonds ...
  1 = max bonds/atom
  scanning angles ...
  1 = max angles/atom
  reading bonds ...
  1600 bonds
  reading angles ...
  1200 angles
  2 = max # of 1-2 neighbors
  2 = max # of 1-3 neighbors
  2 = max # of 1-4 neighbors
  4 = max # of special neighbors
  special bonds CPU = 0.00496028 secs
  read_data CPU = 0.0325827 secs

# ----------------- Settings Section -----------------

include "system.in.settings"
        pair_coeff 1 1 dpd 3.0 1.0
        pair_coeff 2 2 dpd 3.0 1.0
pair_coeff 1 2 dpd 8.0 1.0

        bond_coeff 1 harmonic 1000 0.4

        angle_coeff 1 harmonic 20 180
        angle_coeff 2 harmonic 20 180
        angle_coeff 3 harmonic 20 180
        angle_coeff 4 harmonic 20 180
        angle_coeff 5 harmonic 20 180
        angle_coeff 6 harmonic 20 180
        angle_coeff 7 harmonic 20 180
        angle_coeff 8 harmonic 20 180


# ----------------- Run Section -----------------

include "system.in.run"
  dump dxyz all atom 1000 poly.lammpstrj

  comm_modify vel yes
  thermo   200
  minimize 1.0e-6 1.0e-8 10000 100000
WARNING: Using 'neigh_modify every 1 delay 0 check yes' setting during minimization (src/min.cpp:168)
Neighbor list info ...
  update every 1 steps, delay 0 steps, check yes
  max neighbors/atom: 2000, page size: 100000
  master list distance cutoff = 2.8
  ghost atom cutoff = 2.8
  binsize = 1.4, bins = 29 29 29
  1 neighbor lists, perpetual/occasional/extra = 1 0 0
  (1) pair dpd, perpetual
      attributes: half, newton on
      pair build: half/bin/newton
      stencil: half/bin/3d/newton
      bin: standard
Per MPI rank memory allocation (min/avg/max) = 7.811 | 7.811 | 7.811 Mbytes
Step Temp E_pair E_mol TotEng Press 
       0            0    35.908091    19.054415    54.962507    1.5697087 
     200            0    3.0842636  0.082135658    3.1663993   0.21028912 
     400            0    2.2395103  0.039487902    2.2789982    0.1753711 
     600            0    1.7729219  0.029183323    1.8021052   0.15633872 
     800            0    1.4338824    0.0213063    1.4551887   0.13446448 
    1000            0    1.1824646  0.021687813    1.2041524   0.11555611 
    1077            0    1.1180815  0.018111048    1.1361925   0.10799127 
Loop time of 10.4349 on 1 procs for 1077 steps with 2000 atoms

99.7% CPU use with 1 MPI tasks x 1 OpenMP threads

Minimization stats:
  Stopping criterion = energy tolerance
  Energy initial, next-to-last, final = 
         54.9625065557      1.13619342346      1.13619253618
  Force two-norm initial, final = 10739.7 1010.86
  Force max component initial, final = 632.292 68.1433
  Final line search alpha, max atom move = 1.08055e-06 7.36323e-05
  Iterations, force evaluations = 1077 3895

MPI task timing breakdown:
Section |  min time  |  avg time  |  max time  |%varavg| %total
---------------------------------------------------------------
Pair    | 8.9362     | 8.9362     | 8.9362     |   0.0 | 85.64
Bond    | 0.66367    | 0.66367    | 0.66367    |   0.0 |  6.36
Neigh   | 0.4833     | 0.4833     | 0.4833     |   0.0 |  4.63
Comm    | 0.14959    | 0.14959    | 0.14959    |   0.0 |  1.43
Output  | 0.0054311  | 0.0054311  | 0.0054311  |   0.0 |  0.05
Modify  | 0          | 0          | 0          |   0.0 |  0.00
Other   |            | 0.1967     |            |       |  1.88

Nlocal:    2000 ave 2000 max 2000 min
Histogram: 1 0 0 0 0 0 0 0 0 0
Nghost:    2029 ave 2029 max 2029 min
Histogram: 1 0 0 0 0 0 0 0 0 0
Neighs:    27164 ave 27164 max 27164 min
Histogram: 1 0 0 0 0 0 0 0 0 0

Total # of neighbors = 27164
Ave neighs/atom = 13.582
Ave special neighs/atom = 3.6
Neighbor list builds = 195
Dangerous builds = 0
  timestep 0.001
  velocity        all create 3.0 49840
  fix      fxnve  all nve
  run   500000
Per MPI rank memory allocation (min/avg/max) = 6.688 | 6.688 | 6.688 Mbytes
Step Temp E_pair E_mol TotEng Press 
    1077            3    1.1180815  0.018111048    5.6339425   0.18354731 
    1200    2.3700482    1.3295133   0.87334196    5.7561499   0.27419115 
    1400    2.1078062    1.3736834    1.4450803    5.9788922  0.072759689 
    1600    2.6772128    0.9101949    1.2293711    6.1533773  0.073337596 
    1800    2.6896722   0.59441591    1.6077984    6.2347054  0.083329605 
    2000    2.7180951   0.42205296    1.8097006    6.3068577    0.0470561 
    2200    2.9516769   0.33234014    1.5794629    6.3371046   0.12320263 
    2400    2.8457761   0.25128362     1.885947    6.4037604  0.086323785 
    2600    2.8622158   0.20644602    1.9545846    6.4522077  0.064138905 
    2800    3.0488235   0.20581537    1.7169424    6.4937064  0.061921335 
    3000    2.9408837   0.19305003    1.9319335    6.5341034  0.050840103 
    3200    3.0467577   0.15949207    1.8594064      6.58675  0.054315105 
    3400    3.1265638   0.14129966    1.7773291    6.6061295  0.056636678 
    3600    3.0123236   0.14383314    1.9849681    6.6450274  0.047668166 
    3800    3.0299116   0.15105726    1.9547854    6.6484377  0.057176016 
    4000    3.0997981   0.13727197    1.8469663    6.6316105  0.061702292 
    4200    2.9985376   0.12198084    2.0491124    6.6666508  0.054509864 
    4400    3.0921327   0.12919041    1.9059492    6.6710196  0.059815723 
    4600    3.0975565   0.12512873    1.9252455    6.6943858  0.051285622 
    4800    3.0137634   0.12845228    2.0466488    6.6934859  0.043506381 
    5000    3.1287225   0.13665698    1.8946195    6.7220138   0.05394618 
    5200    3.1232549   0.14815942    1.9174606    6.7481599  0.060695883 
    5400    3.0765021   0.14192964    2.0060594    6.7604348  0.063620976 
    5600    3.1133652   0.15538992    1.9602962    6.7833989  0.044810036 
    5800    3.0714459   0.17344648    1.9912902    6.7696019  0.041786911 
    6000    3.0650352   0.17192794    2.0153925    6.7825744  0.061074209 
    6200    3.0862986    0.1739717    1.9660924    6.7671972  0.047300193 
    6400    3.0448805   0.20087156     2.002121    6.7680298   0.05142366 
    6600    3.0169912   0.17845646    2.0457105     6.747391   0.05184844 
    6800    3.0759454   0.17137684    1.9560463    6.7390343  0.063138302 
    7000    3.0432901   0.15918118    2.0072952     6.729129  0.030978069 
    7200    3.0423272   0.15918357    2.0390223    6.7594149  0.039564018 
    7400    3.0625712    0.1922409     1.962942    6.7467427  0.041247042 
    7600    3.0048026   0.19189163    2.0600413    6.7568833  0.043764497 
    7800     3.031233   0.16649764    2.0397556    6.7508292  0.053396588 
    8000    3.0375016   0.17452202    2.0383251    6.7668213  0.043273392 
    8200    3.0166976   0.19312318    2.0569119     6.772819  0.067474002 
    8400    3.0279884   0.19961521    2.0517459    6.7910728   0.05271219 
    8600    3.0649309   0.15863309    2.0379939    6.7917247  0.040621101 
    8800    3.0151512   0.17927523    2.1014663     6.801207  0.042333497 
    9000    3.0630138    0.1913193    2.0387675    6.8223103   0.06754065 
    9200    3.0696564   0.18726859    2.0328536    6.8223045  0.042678544 
    9400     3.044651   0.18037566    2.0812473     6.826316  0.051433172 
    9600    3.0572595   0.16536879    2.0623859    6.8113509  0.026854154 
    9800    3.1004597   0.15891526    2.0095182    6.8167977  0.041955483 
   10000     3.035014   0.15981592    2.1350396    6.8451003  0.034048665 
   10200    3.0698206   0.16315393    2.0904731    6.8560555  0.054940103 
   10400    3.0418944   0.15611682    2.1168965    6.8335735  0.049552649 
   10600    3.0434709   0.17074491    2.1118476    6.8455163  0.047871696 
   10800    3.0244229   0.16667406    2.1474368    6.8484769  0.036946841 
   11000    3.0648373   0.16898192    2.0920763    6.8560156  0.052589526 
   11200    3.0581425   0.15538245      2.12447    6.8647726  0.028258543 
   11400    3.0467479   0.16272577    2.1247581    6.8553207  0.043901488 
   11600    3.0254113   0.16292578    2.1762291    6.8750029   0.04578353 
   11800    3.0260064   0.16449794    2.1918113    6.8930493   0.04843181 
   12000     3.063123   0.16388283    2.1339231    6.8901931  0.051048419 
   12200    3.0517742   0.19497856    2.1427384    6.9130894  0.048418797 
   12400    3.0329517   0.18207205    2.2042867    6.9335116  0.046240746 
   12600    3.0425255   0.17988337    2.1948784    6.9362682  0.045014346 
   12800     3.068321    0.1618587    2.1476247    6.9096637  0.040051522 
   13000    3.0166216   0.15335739    2.2274522    6.9034796  0.036201642 
   13200     3.041891    0.1723654    2.1649486     6.897869   0.04393638 
   13400    3.0513703   0.18565838    2.1232182    6.8836436   0.05402427 
   13600    3.0001095   0.15993571     2.252263     6.910113  0.045593659 
   13800    3.0354926   0.16709121    2.1869932    6.9050466  0.054079632 
   14000    2.9902584   0.16857817    2.2450821    6.8968052  0.043446115 
   14200    3.0389945   0.15771544    2.1856976    6.8996256   0.04035531 
   14400    3.0691521   0.15926871    2.1720031    6.9326982  0.041237345 
   14600    3.0663156   0.16922016    2.1680979    6.9344917  0.026008948 
   14800    3.0750069   0.16915146    2.1616627    6.9410182  0.034636291 
   15000    3.0208561   0.15450336    2.2347265    6.9182484   0.03138237 
   15200    3.0362452   0.18259019    2.1867239    6.9214046  0.059535376 
   15400      3.05474   0.17149154    2.2032494    6.9545599  0.042299377 
   15600    3.0695063    0.1759792    2.1944635       6.9724  0.042724467 
   15800    3.0296841   0.17109392    2.2585411    6.9718889  0.041185942 
   16000    3.0445973   0.16574735    2.2531474    6.9835072  0.034830667 
   16200     3.058704   0.16783184    2.2313738    6.9849677  0.032227898 
   16400    3.0306935   0.19008797    2.2709555    7.0048106  0.036692387 
   16600    3.0183763   0.17708873    2.2902789    6.9926684  0.046105674 
   16800    3.0271397   0.18153218    2.2703411    6.9903125  0.036483366 
   17000    3.0623045    0.1540788     2.247254    6.9924928  0.044348711 
   17200    3.0810998    0.1459301    2.2584199    7.0236888  0.050397052 
   17400    2.9978651    0.1626623    2.3725118    7.0297233  0.025803644 
   17600    3.0662932   0.17887896    2.2514739     7.027493  0.028905972 
   17800    3.0004784   0.20515761    2.3088718    7.0124966  0.034754587 
   18000    3.0060808   0.19540038    2.3025597    7.0048267  0.040592724 
   18200     2.985612   0.17956356    2.3327226     6.988465  0.039243499 
   18400     2.977716   0.19088834    2.3463179    7.0015469  0.042200508 
   18600    2.9916496   0.19694471    2.3330299    7.0152052  0.025775408 
   18800    3.0178572   0.18270154    2.3091971     7.016421  0.030000096 
   19000     2.982007   0.19669194    2.3425546    7.0100204  0.050145139 
   19200    2.9804951   0.16810804    2.3880214    7.0246367  0.041354423 
   19400    3.0351236   0.15126598    2.3234699     7.025145  0.034475914 
   19600    3.0299603   0.15616547     2.329125    7.0279584  0.041934997 
   19800    3.0370882   0.14950708     2.329681    7.0325425   0.04924694 
   20000    3.0485447   0.14780126    2.3135094    7.0318413  0.035955243 
   20200    3.0377026   0.16521744    2.3164915    7.0359846  0.026196673 
   20400    3.0747803   0.16340976    2.2700097    7.0432838  0.016955317 
   20600    3.0542133   0.16733272    2.3136306    7.0599925  0.035544279 
   20800     3.046531    0.1672176    2.3287657     7.063495  0.048779003 
   21000    3.0326824   0.15875027    2.3585924    7.0640918  0.036927275 
   21200    3.0454237   0.17133318    2.3244391    7.0616237   0.05574532 
   21400    2.9969975   0.18157603    2.3708651    7.0456896  0.029409192 
   21600    3.0676511   0.17049176    2.2871623    7.0568301  0.046454456 
   21800    3.0039002   0.17645832    2.4156452    7.0957009  0.031486621 
   22000     3.014869   0.17202458    2.3803569    7.0724238  0.050447763 
   22200    3.0044259   0.17995418     2.405686    7.0900256   0.04566859 
   22400    3.0197341   0.19261728    2.3622217    7.0821754  0.046149866 
   22600    3.0515058   0.16950988    2.3648661     7.109346   0.03239321 
   22800    3.0348712   0.16908864    2.3873669    7.1064862  0.028529875 
   23000    3.0537528   0.15981825     2.350343    7.0885002  0.040908871 
   23200    3.0818544   0.14597044    2.3451818    7.1116224  0.045312757 
   23400    3.0582446   0.15912851    2.3743349    7.1185367  0.028329615 
   23600     3.072207    0.1675456    2.3365389    7.1100909   0.05046391 
   23800    3.0061159   0.18605989     2.419373    7.1123521  0.024868314 
   24000      3.01496   0.17470085    2.4181799    7.1130596  0.039781985 
   24200    3.0233156   0.15799669    2.4230595    7.1137622  0.041093045 
   24400    3.0546839   0.15455367    2.3741637    7.1084522  0.046679552 
   24600    2.9753125   0.17265754    2.4952125    7.1286073  0.039976045 
   24800    2.9887964   0.17425115    2.4653523    7.1205564    0.0407619 
   25000     3.064471   0.15636028    2.3647291    7.1154976  0.037119029 
   25200    2.9941185    0.1734638    2.4259024    7.0882985   0.03713908 
   25400    3.0344269   0.16732832    2.3944039    7.1110967  0.035269513 
   25600    3.0545361   0.17019946    2.3764392    7.1261519  0.014086716 
   25800    3.0626739   0.17387718      2.37953     7.145121  0.035093347 
   26000    2.9820705   0.16760815    2.5184873    7.1569648  0.034749488 
   26200    3.0507536   0.15922754    2.4274299    7.1604998  0.049626029 
   26400    3.0025409   0.15120163    2.5082939     7.161055  0.027831898 
   26600    3.0728734   0.14732208    2.3845688    7.1388963  0.031528291 
   26800    3.0696885   0.16515756    2.3893559    7.1567439  0.036720496 
   27000    3.0189461   0.15774384    2.4771846    7.1610833  0.030450968 
   27200    3.0689288   0.16218146    2.4122993    7.1755723  0.035391583 
   27400    3.0526428   0.15687888    2.4437781    7.1773317  0.025791709 
   27600    3.0502065   0.15303104    2.4584342    7.1844873  0.026215419 
   27800    3.0785457    0.1593247    2.4056257      7.18046  0.040027633 
   28000    3.0094273   0.15813781    2.5339376    7.2039593  0.017859465 
   28200    3.0317357    0.1787608    2.5305717    7.2546622  0.035886199 
   28400    3.0413956   0.16975187    2.5215839    7.2511481  0.023658838 
   28600    3.0578249   0.15559077    2.5127196    7.2527543  0.025106387 
   28800    3.0452119   0.15042954    2.5381329    7.2540964  0.021059134 
   29000    3.0601089   0.14914364     2.505577     7.242589  0.036325618 
   29200     3.013305   0.16040006     2.541759    7.2198566  0.028903912 
   29400    3.0048854   0.15374315    2.5525911    7.2114087  0.041812826 
   29600    3.0048279   0.16459827      2.53152    7.2011065  0.034152419 
   29800    3.0377409   0.14783556    2.5113201    7.2134886  0.036365277 
   30000    3.0511607   0.14213424    2.4915531    7.2081401  0.035580063 
   30200     3.080266   0.14556366    2.4583771    7.2220296  0.016750057 
   30400    3.0438003   0.14685072    2.5075356    7.2178039  0.037227926 
   30600    3.0305421   0.15854195    2.5193942    7.2214765  0.031327617 
   30800    3.0997277   0.14570774    2.4469812    7.2399557   0.02963678 
   31000    3.0072833    0.1638264    2.5705284    7.2430243  0.032626889 
   31200    3.0662092   0.16214032    2.4833599    7.2425144   0.02898451 
   31400      3.06977   0.16258578    2.4844434    7.2493818  0.021014773 
   31600    3.0142592   0.15036497    2.5653845    7.2348776  0.028087945 
   31800     3.064081   0.15211384    2.4898543    7.2357916  0.036391417 
   32000     3.020556   0.15509764    2.5447007    7.2283669  0.023349267 
   32200    3.0609896   0.16171282    2.4578981    7.2087996  0.026892883 
   32400    2.9877678   0.15938346    2.5468038     7.185598  0.032880121 
   32600    3.0714007   0.15143628    2.4430068    7.1992407  0.045617847 
   32800    3.0370069   0.18071663    2.4786087     7.212558  0.041563099 
   33000    3.0585453   0.16987042    2.4500564    7.2054508  0.032064801 
   33200    3.0333763   0.16452079    2.4699939    7.1823042  0.040602348 
   33400    3.0046149   0.16551449    2.5017627    7.1719461  0.031108474 
   33600    2.9837624    0.1668111    2.5393181     7.179535  0.025287426 
   33800     2.966335   0.17343738    2.5599823    7.1806975  0.028114519 
   34000    2.9967728   0.16545356    2.5222415    7.1806067  0.028258128 
   34200    3.0274989   0.15225059    2.5093242    7.2005525  0.035294079 
   34400    3.0286334   0.15299248    2.5054501    7.1991213   0.02385954 
   34600      3.01913   0.14995712    2.4797362    7.1561239  0.021121494 
   34800    3.0024808   0.15296084    2.5012349     7.155665  0.015872793 
   35000    3.0135189   0.15018726    2.4873207    7.1555262  0.041015777 
   35200    2.9895333   0.15500285    2.5376197    7.1746803  0.027705639 
   35400    2.9699706   0.16844474    2.5419262    7.1630994  0.044294161 
   35600    3.0127498   0.15852925    2.4978347    7.1732291  0.047346189 
   35800    2.9809529   0.15042748    2.5374227    7.1570438  0.025366701 
   36000    2.9670357   0.14788121    2.5408849    7.1370944  0.042047612 
   36200    3.0009527   0.15504787    2.4819943    7.1362205  0.019855749 
   36400    3.0344866    0.1625093     2.417356    7.1293193  0.040109685 
   36600    2.9808327   0.15547181    2.5056746    7.1301598  0.017368913 
   36800    3.0209711   0.14947049    2.4691703    7.1478317  0.022878524 
   37000    3.0078052   0.14308969    2.5008486    7.1533902  0.026905391 
   37200    3.0590074   0.15509182    2.4153519    7.1566605    0.0402163 
   37400    2.9674864   0.16019442    2.5375458    7.1467442  0.033608834 
   37600    2.9968549   0.15718997    2.4917308    7.1419555  0.040284068 
   37800    2.9946399   0.15104258    2.5311486    7.1719049  0.029811382 
   38000    2.9670162   0.15510591    2.5436334    7.1470384  0.029486235 
   38200    2.9932941   0.15163787    2.4795933    7.1189274  0.039501294 
   38400    3.0202982   0.15517224     2.447996    7.1313503  0.035657851 
   38600    2.9741716   0.16563315    2.5245685    7.1492284  0.028829645 
   38800    3.0144463   0.16493622    2.4770018    7.1613465  0.034843673 
   39000    3.0046622   0.15255518    2.5024373    7.1597324  0.027630532 
   39200    3.0011434   0.14990468      2.52664     7.176009  0.017882775 
   39400    2.9849106   0.17113119    2.5243839    7.1706424  0.021123581 
   39600    2.9936887   0.18148492    2.4829708    7.1527435  0.038642351 
   39800    3.0067396   0.18434782    2.4562541    7.1484563  0.054273382 
   40000    3.0199012   0.17518581    2.4331886    7.1359613  0.038420069 
   40200    2.9893849   0.19084659     2.477623    7.1503048  0.030565828 
   40400     2.958215   0.16008616    2.5715144    7.1667044  0.013599214 
   40600    2.9968058   0.15478325    2.5259019    7.1736462  0.025567367 
   40800    2.9983178   0.15690267     2.522329    7.1744597  0.029210178 
   41000    2.9568805   0.16085727     2.606811    7.2007713  0.015964631 
   41200    3.0225229   0.16808484     2.484821    7.1844234  0.032881839 
   41400    2.9595661   0.17345623    2.5710636    7.1816493  0.035374923 
   41600    2.9752669   0.17475403    2.5587465    7.1941694  0.028086244 
   41800    2.9720998   0.15149017    2.5557243    7.1631351  0.015228251 
   42000     2.963782   0.15053807    2.5838187     7.177807  0.025689866 
   42200    2.9906961   0.15789694    2.5442561    7.1859541  0.045419067 
   42400    2.9912772   0.16771292    2.5420678     7.194453  0.034089317 
   42600    2.9878713    0.1590834    2.5668896    7.2055391    0.0430727 
   42800     2.982526   0.13259002    2.6155954    7.2197375  0.023240728 
   43000     2.986161   0.14539293    2.5957808    7.2181756  0.037174818 
   43200    3.0068586   0.14424497    2.5720502    7.2243278  0.033104541 
   43400    3.0356683   0.14219421    2.5409375    7.2343574  0.027487182 
   43600    2.9957036   0.14423258    2.5984227    7.2339639  0.021353367 
   43800    2.9942497   0.15073847    2.5847099    7.2245772  0.024586683 
   44000    2.9431157   0.16361804    2.6413297    7.2174139  0.027225949 
   44200    3.0127668   0.14958905    2.5376861    7.2041659  0.037099346 
   44400    2.9834306   0.13791669    2.6074026    7.2182276  0.035139331 
   44600    2.9754405   0.14340629    2.5981089    7.2024444  0.013555877 
   44800    2.9710202   0.15811331    2.5982562    7.2106715  0.029733082 
   45000    2.9090969   0.15957825    2.7008958    7.2219375  0.026253605 
   45200    2.9631771   0.15950174    2.6334377    7.2354828  0.024904492 
   45400    2.9502929    0.1521251    2.6618369    7.2371886  0.017318491 
   45600    2.9724228   0.15556192    2.6251653    7.2371322  0.044368647 
   45800    2.9588085   0.16240395    2.6427951    7.2411927  0.026262073 
   46000    2.9733461   0.16385135    2.6133425    7.2349829  0.038717563 
   46200    2.9727496   0.15863013    2.6383975    7.2539225  0.030648336 
   46400    3.0003367   0.14724412    2.6090298    7.2545287  0.028637419 
   46600    3.0266606   0.15318097    2.5631203    7.2540222  0.022234446 
   46800    2.9643642   0.16083323    2.6644215    7.2695778  0.026147309 
   47000    3.0414426   0.16275355    2.5594578    7.2820941  0.036564891 
   47200    3.0121122   0.15193555    2.6011909    7.2690356  0.035153074 
   47400    3.0024129   0.15452012    2.6400319    7.2959195  0.035256998 
   47600    3.0074582   0.15070708    2.6621801    7.3218188   0.01371066 
   47800    3.0611746   0.15494761    2.5916476    7.3360612   0.03268895 
   48000    2.9907798   0.15536468      2.69438    7.3336714  0.014267166 
   48200    2.9745624   0.15968832    2.7077762    7.3270773  0.020547227 
   48400    2.9918602   0.16170836    2.6479074    7.2951623     0.033862 
   48600    2.9678945   0.14443788    2.7110142    7.3050679  0.040985896 
   48800     2.979381   0.14850773    2.7161123    7.3314569  0.020912437 
   49000    3.0381981   0.15035215    2.6378943    7.3432649  0.037044398 
   49200    2.9576255   0.15888526    2.7567881    7.3498934  0.026403448 
   49400    3.0111083   0.14781943     2.672152    7.3343755  0.026158433 
   49600    3.0074539   0.15042425    2.6836658    7.3430154  0.035951637 
   49800    3.0060732   0.15907569    2.6579768    7.3239077  0.028654837 
   50000     2.990819   0.15223432    2.6924366    7.3286563  0.032126293 
   50200    3.0416159   0.14856284    2.6144764    7.3231819  0.029569805 
   50400    2.9784434   0.15781583     2.711668    7.3349152  0.016309251 
   50600    3.0438343    0.1587297    2.6053697    7.3275681  0.034496167 
   50800    3.0077742   0.15084839    2.7078693     7.368123  0.026469556 
   51000    2.9832935   0.14688872    2.7675002    7.3870917  0.020927969 
   51200    3.0474651   0.15272009    2.6552343    7.3768664  0.036011716 
   51400    3.0185364   0.15593436    2.6960449      7.37752  0.032383348 
   51600    3.0189822   0.16226231    2.7000812    7.3885526  0.042473653 
   51800    3.0070935   0.15395415      2.74401    7.4063491  0.031781601 
   52000    2.9801188   0.15112824    2.7914511    7.4105224  0.023869182 
   52200    3.0189431   0.16729465    2.7098474    7.4032926  0.033626073 
   52400    3.0016619   0.15341398    2.7383471    7.3920026  0.033796724 
   52600    3.0613157   0.14680942    2.6477168    7.3842038  0.027903511 
   52800    2.9862876   0.15075775    2.7707132    7.3986627  0.024638732 
   53000    3.0491904   0.15568053    2.6593124    7.3864916  0.025346282 
   53200    3.0263213   0.14877518    2.6853017    7.3712891  0.022796353 
   53400     3.032075   0.15214706    2.6793277    7.3773132  0.024849762 
   53600    3.0056372   0.14602174    2.7220247     7.374248   0.02248961 
   53800    2.9924228   0.15220583    2.7239658    7.3625616  0.022569189 
   54000     3.009267   0.14923176    2.7179917    7.3788671  0.032704435 
   54200    3.0406699   0.14506724    2.7039149    7.4077064  0.028040101 
   54400    3.0254612    0.1449398    2.7276828    7.4085454  0.029403924 
   54600    3.0376093   0.14323789      2.71902    7.4163937  0.015297916 
   54800    3.0596422   0.13230536    2.6875133    7.4069873  0.032784441 
   55000    3.0118891   0.15202319    2.7574855    7.4250834   0.01908463 
   55200    3.0469513   0.16087284    2.6910082    7.4200227  0.047484134 
   55400     3.047552   0.15410696    2.7002719    7.4234212  0.041301862 
   55600    3.0396401   0.14843715     2.737947    7.4435646  0.026518197 
   55800    3.0424981   0.14170448    2.7466616    7.4498313  0.017108679 
   56000    3.0746639   0.14621249    2.7003249    7.4562272  0.028284066 
   56200    3.0334887   0.14037557    2.7616283    7.4499618  0.035189138 
   56400    3.0541055   0.14018882    2.7377087    7.4567651  0.019109752 
   56600    3.0518742   0.14599155    2.7639646    7.4854785  0.026873145 
   56800    3.0187417   0.14724959    2.7816112    7.4547092  0.021369148 
   57000    3.0714808    0.1560742    2.6941748    7.4551666  0.022031455 
   57200    3.0256855   0.16887161    2.7642334    7.4693641  0.030482821 
   57400    3.0455655    0.1552148    2.7302934    7.4515723  0.026414122 
   57600    3.0015639    0.1497236    2.7851564    7.4349747  0.026788643 
   57800    3.0293629   0.14080448    2.7495083    7.4320851  0.034464794 
   58000    3.0801115   0.14478194    2.6914198     7.454059  0.029441616 
   58200    3.0274144   0.15634686    2.7722322      7.46743  0.021575416 
   58400    3.0316334   0.14756725    2.7957809    7.4885245  0.024929368 
   58600    3.0661357   0.15267128    2.7460244    7.4955997  0.019504576 
   58800    3.0679142   0.16514383    2.7193408    7.4840549  0.032458858 
   59000    3.0473097   0.14915414    2.7807409    7.4985742    0.0232184 
   59200    2.9968606   0.15311409    2.8516456     7.497803  0.022339816 
   59400    3.0197786   0.15883909    2.8267445    7.5129866  0.019412543 
   59600    3.0788424   0.16085811    2.7312997    7.5081122  0.039248598 
   59800    3.0649374   0.15210014    2.7862143    7.5334219  0.035906872 
   60000    3.0737261   0.14562112    2.7848936    7.5387986  0.017133546 
   60200     3.026855   0.14395106    2.8597394    7.5417028   0.01569823 
   60400    3.0615646   0.15292932    2.7781016    7.5210816  0.030664017 
   60600    3.0307557   0.15400454      2.79507     7.492935  0.033595294 
   60800    2.9964097    0.1649733    2.8292113    7.4865518  0.019151514 
   61000    3.0693066   0.16330145    2.7235979    7.4885573  0.029845158 
   61200    3.0944334   0.16501787    2.6917315    7.4960787  0.036099491 
   61400    3.0683836   0.15939178    2.7440763    7.5037422  0.028261392 
   61600    3.0332427   0.14712054    2.7786431    7.4733527  0.033429036 
   61800     2.994481    0.1649155    2.8151274    7.4695185  0.030003248 
   62000    2.9941512   0.16758902    2.8276748     7.484245  0.027293982 
   62200       3.0509   0.15872144    2.7513677    7.4841509   0.03962973 
   62400    3.0645772   0.14926999    2.7555864    7.4994238  0.034471543 
   62600    3.0398352    0.1590469    2.8118454    7.5283652  0.020097072 
   62800    3.0521627   0.14648581    2.7939842     7.516425  0.031587078 
   63000    3.0444039   0.14723305    2.8047679    7.5163235  0.023196064 
   63200     3.039621   0.13883719    2.7911515    7.4871405  0.014648894 
   63400    3.0512617   0.14952634     2.762945    7.4870754  0.033345635 
   63600    3.0959748   0.15018842    2.6833674    7.4751961  0.027082533 
   63800    3.0787927   0.13999565     2.718903    7.4747787  0.020354931 
   64000    3.0944183   0.14762824    2.6991798    7.4861147  0.016014876 
   64200    3.0761848     0.142342    2.6983816    7.4526936  0.024170692 
   64400    3.0372682    0.1456436    2.7848376    7.4841056  0.017561346 
   64600    3.0160905   0.15158253    2.7800625    7.4535187  0.025400018 
   64800    3.0047204   0.14786303    2.8078024    7.4604924  0.033755751 
   65000    3.0431231   0.15187876    2.7445823    7.4588634  0.029475623 
   65200    3.0463732   0.15084719     2.737333    7.4554552  0.042980035 
   65400    3.0132774   0.16239075    2.7957814    7.4758283  0.023816592 
   65600    3.0317571   0.13974295    2.8023758    7.4874805  0.028665161 
   65800    3.0488769   0.13831703    2.7767071    7.4860528  0.037937607 
   66000    2.9842803   0.15656769    2.8610588    7.4918087  0.017373201 
   66200    3.0770836   0.15267208    2.7224793    7.4884689  0.032503536 
   66400    2.9522577   0.15850711    2.9025708    7.4872503 0.0053219117 
   66600    3.0586518   0.15130038    2.7458047    7.4827887  0.034592654 
   66800    2.9993129   0.15664727    2.8315796    7.4849468  0.024327858 
   67000    3.0133282   0.15424713    2.7915522    7.4635316  0.021107567 
   67200    3.0354601   0.15073865    2.7626013    7.4642535  0.021101187 
   67400    3.0866415    0.1532743    2.6668037    7.4477254  0.039932579 
   67600    2.9715346   0.15384915     2.856933    7.4658554  0.018220296 
   67800    2.9931944   0.15123194    2.8120594     7.450838   0.02074305 
   68000    3.0540755   0.14835158    2.7433362    7.4705105  0.021520884 
   68200    3.0605327   0.15020563    2.7043914    7.4431007   0.02750531 
   68400    3.0233998   0.14618895    2.7897615    7.4687826  0.024613993 
   68600    3.0178908   0.15017528    2.8027688    7.4775168  0.031075821 
   68800    3.0048977    0.1565839    2.8071242     7.468801  0.029226507 
   69000    2.9956167   0.15006858    2.8185914    7.4598384  0.036474909 
   69200    3.0304239   0.15471263    2.7472728    7.4453485  0.025995305 
   69400    3.0078833    0.1546506     2.789772    7.4539915  0.021580689 
   69600    3.0348204   0.14827204    2.7455084    7.4437349  0.031134707 
   69800    3.0415549   0.13629612    2.7411753    7.4375226  0.024128951 
   70000    3.0091008   0.14044978    2.7897273    7.4415715  0.024211503 
   70200    2.9730088    0.1517082    2.8321981    7.4411898  0.027208421 
   70400    3.0452594   0.15701786    2.7487502    7.4713732  0.024388963 
   70600    3.0190785   0.15596459    2.7975212    7.4798393  0.028508903 
   70800    3.0484444   0.15509088    2.7746837    7.5001549  0.017945685 
   71000    3.0520065   0.13758054    2.7721547    7.4854559  0.027197067 
   71200    2.9862436   0.15419785    2.8632824    7.4946059  0.030247484 
   71400    3.0558538   0.17603773    2.7414288    7.4989553  0.036242237 
   71600    3.0229708   0.15714869    2.8259623       7.5153  0.043497081 
   71800    3.0303653   0.13463442    2.8287881    7.5066977  0.034128834 
   72000    3.0518574   0.14375218    2.7968677    7.5161171   0.03188852 
   72200    3.0169748    0.1378115    2.8535378    7.5145487  0.034151816 
   72400      3.02997     0.144399    2.8412873    7.5283687  0.019583373 
   72600    3.0533702    0.1508496      2.80426    7.5328748  0.018064863 
   72800    3.0321277   0.14990897    2.8442367    7.5400632  0.025242506 
   73000    3.0192922   0.14516995    2.8442614    7.5161052  0.027909081 
   73200    3.0792193   0.15698032    2.7565194    7.5300193  0.036643939 
   73400    2.9998797   0.16581603    2.8797672    7.5431528  0.026888573 
   73600    2.9967356   0.15977347    2.8946487    7.5472781  0.028381366 
   73800    3.0468474   0.14617712    2.8261847    7.5403477   0.02673964 
   74000    3.0590341   0.15762737    2.8075136    7.5513978  0.019560587 
   74200    3.1137201   0.15179429    2.7544951    7.5745342  0.034395346 
   74400     3.030457   0.13819327    2.9019708    7.5835768 0.0025625415 
   74600    3.0662685   0.14216771    2.8386625    7.5779333   0.02987153 
   74800    3.0279955   0.16339679    2.8746014    7.5777205  0.023210299 
   75000    3.0541021   0.15474479    2.8671173    7.6007246  0.034864083 
   75200    3.0919634    0.1459277    2.8275204    7.6090743  0.031436363 
   75400    3.0318876   0.14831905    2.9028265    7.5967031  0.021684759 
   75600    3.0151319    0.1794497    2.8828097    7.5826959  0.012298787 
   75800     3.061938   0.17750437    2.7922492    7.5603641  0.025968752 
   76000    3.0736714     0.151588    2.7994836    7.5592734  0.020752261 
   76200    3.0775095   0.14753154    2.8133984    7.5748861  0.025459458 
   76400    3.0461738   0.15273816    2.8431309    7.5628452  0.039937211 
   76600    3.0535751   0.13738295    2.8572568    7.5727122  0.030492044 
   76800    3.0611045    0.1413708    2.8312272     7.561959  0.035728569 
   77000    2.9986695    0.1505959    2.9127869     7.559138  0.023401983 
   77200    3.0661415   0.14484863    2.8374838    7.5792451  0.013502866 
   77400    3.0655648   0.14405676    2.8365351    7.5766399  0.027007211 
   77600    3.0620791   0.13862575    2.8758354    7.6052833  0.023538387 
   77800    3.1030377   0.14201705    2.8161872    7.6104335  0.035525947 
   78000     3.103328   0.13550773    2.8185637    7.6067359  0.015489937 
   78200    3.0916511   0.14477685    2.8483627    7.6282975  0.022121233 
   78400    3.0505988   0.13791651    2.9029104    7.6144372  0.028243175 
   78600    3.0550655   0.14007573    2.8848832    7.6052659  0.016838289 
   78800     3.068047   0.14710476    2.8659787    7.6128528  0.027825038 
   79000    3.0522653   0.14348284    2.8839459    7.6035375  0.035859157 
   79200    3.0972503   0.14756864    2.8119726    7.6030938  0.038274429 
   79400    3.0704114   0.15608327    2.8513007    7.6106983   0.03627045 
   79600    3.0233426   0.13982933    2.9356912    7.6082669  0.035570946 
   79800    3.0826164   0.14371856    2.8716802    7.6370115   0.01675335 
   80000     3.052613   0.14336332    2.8967801    7.6167734  0.028974955 
   80200     3.042921   0.15545926    2.8967918    7.6143504  0.040998582 
   80400    3.0352803   0.16485966    2.9031415    7.6186451  0.018288293 
   80600     3.074659   0.14596458    2.8574209     7.613068  0.051057815 
   80800     3.013551    0.1440821     2.931351    7.5934995  0.022549898 
   81000    3.0021091   0.14070379    2.9371263    7.5787421  0.012978801 
   81200     3.088501   0.13869895    2.8049649    7.5740991  0.029573168 
   81400    3.0496639   0.13522013    2.8783595    7.5857882  0.027290736 
   81600    3.0454986   0.14907943    2.8645411    7.5795843  0.037699741 
   81800     3.049711   0.16819382    2.8401869    7.5806599  0.014750676 
   82000    3.0271519   0.16067281    2.8994667    7.5985971  0.012532971 
   82200    3.0663023    0.1477594    2.8612404    7.6061534  0.021927735 
   82400    3.0577597    0.1396734    2.8724751    7.5964946   0.02376649 
   82600    3.0216371   0.13823369    2.9261202    7.5945433  0.026430244 
   82800    3.0484317   0.14411278    2.8761601    7.5906341  0.035852617 
   83000    3.0330702   0.16098908    2.8820239    7.5903435  0.044082229 
   83200    3.0044115    0.1487391    2.9584869    7.6115899 0.0099751506 
   83400    3.0590293   0.14678495    2.8901244     7.623159  0.031050116 
   83600    3.0734729   0.14163872    2.8581088    7.6076518    0.0268675 
   83800    3.0274588   0.15237039     2.918839    7.6101269  0.031559161 
   84000    3.0178335   0.16977215    2.9146637    7.6089227  0.028937169 
   84200    3.0439611   0.15400021    2.8876385    7.6052973   0.02113186 
   84400    3.0771296   0.14584318    2.8368393    7.5960691  0.020904987 
   84600    3.0506912   0.14527261    2.8475024    7.5665238  0.015409802 
   84800    3.0595011   0.14272704    2.8340474    7.5637315  0.025712619 
   85000     3.016997   0.15699367    2.8785387    7.5587652  0.016177183 
   85200    3.0710646   0.14960754     2.813752    7.5676531  0.034932929 
   85400    3.0441301   0.14843515    2.8438304    7.5561776  0.018812762 
   85600    3.0544897   0.14561639    2.8261723    7.5512324  0.016015304 
   85800     2.986228   0.14177681    2.9270633    7.5459424  0.020804087 
   86000    3.0470038   0.13852472     2.827147    7.5338922  0.027146236 
   86200    3.0462825   0.16054493    2.8061739    7.5338579  0.039826438 
   86400     2.981813   0.15610783    2.9165454    7.5431364  0.020982211 
   86600    3.0421464   0.14310476    2.8282058    7.5322485  0.017724326 
   86800    3.0239928   0.14488477    2.8758765    7.5544825  0.014885648 
   87000    3.0009149   0.15376007    2.9131297    7.5660114  0.012265827 
   87200    3.0531671   0.15891382    2.8179857    7.5543602  0.029387766 
   87400    3.0335546   0.15450154    2.8230998    7.5256581  0.038652506 
   87600    3.0241513   0.15146644    2.7970573    7.4824826  0.027105337 
   87800    3.0260386   0.14397894    2.8124525    7.4932198  0.027819221 
   88000    3.0484375   0.13773437    2.7749973    7.4831016  0.032871642 
   88200    2.9974286   0.14747964    2.8641323    7.5055069  0.022472126 
   88400    3.0366438   0.14057386    2.8474923    7.5407544  0.026846391 
   88600    3.0775048    0.1462497    2.7564703     7.516669  0.013616775 
   88800    2.9966742   0.15011384    2.8995167    7.5423943   0.01158091 
   89000    3.1082775   0.14625208    2.7484885    7.5548256  0.025273641 
   89200    2.9962875   0.15687101    2.8999234    7.5489785  0.019844946 
   89400    2.9957325   0.16762662    2.8701761    7.5291546  0.040252827 
   89600    3.0162552   0.15246499    2.8473144    7.5218999  0.051333508 
   89800     3.015212   0.15025862     2.825512    7.4963271  0.017741148 
   90000    3.0246112   0.15292962    2.8066153    7.4941933  0.028392491 
   90200    3.0155298   0.14773401    2.8675749     7.536342 0.0057798948 
   90400     3.047418   0.14807312    2.8088426    7.5257571  0.025012312 
   90600    3.0656067   0.15364203    2.7861055    7.5358584  0.017319718 
   90800    3.0447136   0.14780967    2.8212997    7.5338963  0.014297022 
   91000    3.0507632   0.14259362    2.8078952    7.5243455  0.027310645 
   91200    3.0423831   0.13828673    2.8249003    7.5244798  0.031197775 
   91400    3.0301157   0.13777475    2.8214162    7.5020919  0.039221679 
   91600    3.0357574   0.14629404    2.8271846    7.5248379  0.019246667 
   91800    2.9784729   0.15696095     2.883065    7.5055014  0.025995718 
   92000    3.0098206   0.14519959    2.8456791    7.5033523  0.023170014 
   92200    2.9818225    0.1470009    2.8916661    7.5091644  0.021277702 
   92400    3.0048512   0.14797083    2.8846086    7.5376025  0.030255196 
   92600    3.0233647    0.1482762    2.8445439    7.5255997  0.016756868 
   92800    3.0154045   0.15311273     2.831367    7.5053249  0.023580856 
   93000    3.0352259   0.15960242       2.7879    7.4980648  0.017939867 
   93200    3.0059488   0.16030627     2.829692     7.496667  0.022330105 
   93400    3.0764196   0.14513212    2.7424063    7.4998605  0.037267833 
   93600    3.0109021   0.14715902    2.8418601     7.503114  0.011854036 
   93800    3.0239815   0.14869579    2.8145043    7.4969044  0.020294055 
   94000    3.0611005   0.13120888    2.7712508    7.4918146  0.019159903 
   94200    3.0313625   0.13436639    2.8085473    7.4876839  0.020511933 
   94400    3.0344824   0.14243909    2.7945016    7.4863884  0.034596884 
   94600    3.0187992   0.13913439    2.8309552    7.4960243  0.030972565 
   94800    2.9938134   0.15009031     2.872944    7.5115091  0.033179675 
   95000    3.0143045   0.15098755    2.8510428    7.5212263  0.016437112 
   95200    3.0418545   0.14115042    2.8188237    7.5204745  0.030310121 
   95400    3.0211741   0.14605021    2.8273075     7.502853  0.017668814 
   95600    3.0331096   0.13493473    2.8330806    7.5154049  0.022063439 
   95800    3.0465811   0.13055863    2.8363142    7.5344596  0.016595023 
   96000    3.0736756   0.12786076    2.7985392     7.534608  0.021391825 
   96200    3.0479154   0.13998316    2.8223738    7.5319441  0.021671207 
   96400    3.0745977    0.1563281    2.7774093     7.543328  0.026897806 
   96600    3.1113199   0.14391651    2.7415321    7.5500949  0.030438986 
   96800    3.0547001   0.15440141    2.8244738    7.5586344  0.023705831 
   97000      3.04927   0.15659869    2.8370945    7.5653113  0.019766911 
   97200    3.0594518   0.14345181    2.8164919    7.5468268  0.026863337 
   97400    3.0705422   0.15217187    2.7840743    7.5397566  0.032006837 
   97600    3.0327676    0.1483543     2.877973    7.5732041  0.018248492 
   97800    3.0353125   0.15484128     2.864387    7.5699206  0.033974544 
   98000    3.0747446   0.16105146    2.7977499    7.5686123  0.030087281 
   98200    3.0804516   0.14473779    2.8199457    7.5830505  0.041201194 
   98400    3.0628285   0.13669937    2.8577291    7.5863741  0.026311241 
   98600    3.1503288   0.14305348    2.7433891     7.609573  0.022141623 
   98800    3.0693574   0.14518624    2.8378769    7.5847972  0.019566259 
   99000    3.0825517   0.13977392    2.8252981    7.5865877  0.032893585 
   99200    3.0780656    0.1446866    2.8090236       7.5685   0.02883662 
   99400    3.0297077   0.14786404    2.8827811    7.5729344  0.021710046 
   99600     3.024481    0.1515493    2.9013792    7.5873816  0.024467698 
   99800    3.0535109   0.14133711    2.8895817     7.608895  0.042080808 
  100000    3.0118238   0.14867747    2.9491476    7.6133019   0.03038505 
  100200    3.1088439   0.15068021    2.7942249    7.6058393  0.029449879 
  100400    3.0742372   0.14191252    2.8554229    7.6063856   0.01352014 
  100600    3.0478217   0.14800725    2.8792893    7.5967433  0.025928584 
  100800    3.0945356    0.1465112    2.7948228    7.5808165  0.021070715 
  101000     3.105291   0.14525754     2.763618    7.5644832  0.028930149 
  101200    3.0482276   0.13796241     2.868587    7.5766046  0.023293568 
  101400    3.0813448   0.13030139    2.8061486    7.5561562  0.022921164 
  101600    3.0573629   0.13649693    2.8481276    7.5683758   0.03081108 
  101800    3.0446016   0.14496079    2.8816669    7.5912465  0.032257145 
  102000    3.1344519   0.13866047    2.7508542    7.5888417  0.023885247 
  102200    3.0591742   0.13391855    2.8798586    7.6002442  0.031178452 
  102400    3.0866026   0.13643082    2.8452344    7.6092542  0.021263913 
  102600    3.0789494   0.13909138    2.8316495    7.5868558  0.038468158 
  102800    3.0310765   0.13264947    2.9299179    7.6069087  0.028271371 
  103000    3.0646513    0.1380527     2.862252    7.5949831  0.044473864 
  103200    3.0210608   0.14659986     2.914869    7.5907942  0.021587649 
  103400    3.0807157   0.15062657    2.8571661    7.6265556  0.037494452 
  103600    3.0505831   0.14094729    2.8924812    7.6070152  0.013987587 
  103800    3.0902245   0.14365736    2.8356791    7.6123556  0.021654595 
  104000    3.0823614   0.14657569    2.8547002    7.6225061 0.0092036786 
  104200    3.1025197   0.14786433    2.8125961    7.6119131  0.029158407 
  104400    3.0584086   0.13188053    2.9009512    7.6181508  0.015992754 
  104600    3.0805343   0.13788408     2.892817    7.6491921  0.033039663 
  104800    3.1040291   0.15453078    2.8189494    7.6271958  0.033114128 
  105000    3.0340463   0.14981753    2.9031616    7.6017731  0.027874881 
  105200    3.0056065   0.14271343    2.9415295    7.5903986  0.026449767 
  105400    3.0242565    0.1446609    2.9104104    7.5891879  0.021644966 
  105600    3.0594936   0.13642854    2.8689108    7.5922852  0.040257006 
  105800    3.0467582    0.1518503    2.8787212    7.5984236   0.02642749 
  106000    3.0458442    0.1562113    2.8773367    7.6000298  0.031018043 
  106200    3.0583822   0.14676361     2.899756    7.6317992  0.020836751 
  106400    3.1141981   0.14485412    2.8165288    7.6303445  0.022070574 
  106600    3.0454298   0.16298921    2.9053978    7.6342475  0.031200481 
  106800    3.0485562   0.16385376     2.903114    7.6375156   0.03723024 
  107000    3.0541238    0.1481233    2.9108087    7.6378271  0.017285948 
  107200    3.0572708    0.1570078    2.8926772    7.6332982  0.041581572 
  107400    3.0039448   0.16166899    2.9846682    7.6500015  0.029014926 
  107600    3.0727273   0.14699042    2.9157355    7.6695123  0.040195046 
  107800    3.0648339   0.15589364    2.9195246    7.6703705  0.027295596 
  108000    3.0923371   0.15416984     2.905278    7.6956343  0.034187836 
  108200    3.0887916    0.1534954    2.8959248     7.680291  0.012315066 
  108400     3.079917   0.14560253    2.9185677    7.6817357  0.028077766 
  108600     3.043232   0.14607304    2.9692107    7.6778493  0.010823502 
  108800    3.0625012   0.14159434    2.9257396    7.6587889  0.028397624 
  109000    3.0668412   0.14250151    2.9217712    7.6622344  0.022753338 
  109200    3.1134788   0.13736443    2.8555213    7.6607688  0.027469946 
  109400    2.9850841   0.13251151    3.0584185    7.6663174 0.0056875414 
  109600    3.0577859   0.13570387    2.9656334    7.6857228  0.014425678 
  109800    3.0909209   0.14770018      2.91907    7.7008334    0.0409928 
  110000    3.0292547   0.15014661    3.0076215    7.6993781  0.029905722 
  110200    3.0873512   0.14759097    2.9164128     7.692715  0.031729503 
  110400    3.0820426   0.14756407    2.9175711    7.6858876  0.028948027 
  110600    3.0818367   0.16154791    2.9088427    7.6908343  0.025116531 
  110800    3.0599596   0.15743826    2.9320991    7.6771818 0.0091159481 
  111000    3.0726175   0.14238565    2.9304749    7.6794824  0.026831393 
  111200    3.0440351   0.14797384    2.9509566       7.6627  0.027311423 
  111400    3.0531285   0.15365173     2.926319    7.6573737  0.037494012 
  111600    3.0063348   0.16508784    2.9681401    7.6404754   0.02867172 
  111800    3.0553487   0.17281078      2.89538    7.6489222  0.012739791 
  112000    3.0555132   0.15292293    2.9268478    7.6607489  0.023395063 
  112200    3.0292963   0.15758459    2.9514968    7.6507539  0.023683743 
  112400    3.0646151    0.1421105    2.8842282    7.6209628  0.024023374 
  112600    3.0531579   0.13381246    2.8880247    7.5992841  0.024661648 
  112800      3.04879   0.14115142    2.8569073    7.5689571  0.024859278 
  113000    3.0511729   0.13782411    2.8546817    7.5669767  0.019485372 
  113200    2.9960604   0.14333919    2.9180118    7.5531945 0.0019002127 
  113400    3.0469486   0.14186807    2.8340761    7.5440819   0.02666924 
  113600    3.0392781   0.14726342    2.8014264    7.5053275  0.031995669 
  113800    2.9900225   0.14853571    2.8547558    7.4860828  0.020510047 
  114000    2.9323633   0.14186738    2.9592922    7.4975053   0.01811542 
  114200    3.0223797   0.15018234    2.8040179     7.485503  0.032944055 
  114400    2.9986006    0.1466683    2.8456652    7.4879855  0.030804818 
  114600    3.0030995   0.14001875    2.8328273     7.475243  0.024322351 
  114800    3.0173356   0.14175232    2.8307043    7.4961971  0.036372746 
  115000    3.0082924   0.14406266    2.8570667    7.5113117  0.020194663 
  115200    3.0194394   0.15334756    2.8363913    7.5166333  0.021281227 
  115400    3.0139681   0.15182896    2.8638856    7.5344063  0.029494979 
  115600    2.9884833   0.16280128    2.8859361    7.5292209 0.0051771136 
  115800    3.0399992   0.15082875    2.8259577    7.5345052  0.036998144 
  116000    3.0305157    0.1564228     2.825411    7.5253344   0.02720322 
  116200    2.9607951   0.16414034    2.9078834    7.5109957  0.019003686 
  116400     3.067248   0.14248102    2.7693853     7.510438  0.023378988 
  116600    3.0217977   0.13514099    2.8692854    7.5348566  0.024521594 
  116800    2.9742793   0.13780836    2.9348862    7.5318828  0.021196504 
  117000    3.0046404   0.15091072    2.8570507    7.5126686  0.028725334 
  117200    2.9598339   0.14919738    2.9282423    7.5149706  0.028226678 
  117400    3.0066427   0.14114015    2.8604468     7.509296  0.025625946 
  117600    2.9931388   0.14756896    2.8564457     7.491478  0.021922945 
  117800     2.986435   0.15671429     2.851855    7.4859819  0.022581872 
  118000    2.9974604   0.15530435    2.8233355    7.4725824  0.034285017 
  118200    2.9805659   0.14187128    2.8698091    7.4802938  0.020851459 
  118400    2.9584425   0.13833317    2.9118469     7.485625 0.0096604253 
  118600    2.9630819   0.13964563    2.9119949    7.4940411  0.016386469 
  118800    2.9719253   0.14095508    2.9047314    7.5013456  0.019245666 
  119000     2.934308   0.14342968    2.9520865    7.4947775  0.024997272 
  119200    2.9619523   0.15582365    2.8931616    7.4896922  0.031965329 
  119400    3.0096447   0.15286246    2.8427774    7.5078497  0.038673424 
  119600    2.9942248    0.1410803    2.9064337    7.5366055  0.019922593 
  119800    3.0520837     0.130224    2.8784627    7.5845231  0.029797167 
  120000    3.0546991    0.1414289    2.8662705    7.5874571  0.036772069 
  120200    2.9946084   0.15292504    2.9313965    7.5739881  0.030630321 
  120400    2.9971151   0.15178443    2.9198374    7.5650466  0.028197025 
  120600    3.0356389   0.14876065    2.8670974    7.5670397  0.029408099 
  120800    2.9793551   0.15846782    2.9248104    7.5500763 0.0098851189 
  121000    2.9947085   0.14513628    2.9221416    7.5570945  0.025031596 
  121200    2.9493044   0.13570065    3.0057958    7.5632411  0.020455028 
  121400      3.02219   0.15361894     2.900943    7.5855803   0.03002865 
  121600    2.9973611   0.15091159    2.9351562    7.5798614  0.021383382 
  121800    2.9872927   0.13665664    2.9820891    7.5974443  0.032927802 
  122000    3.0314078   0.14082469    2.9015376    7.5872004  0.026975383 
  122200    2.9664937   0.16504137    2.9840104    7.5965675  0.010060915 
  122400    3.0214729   0.16300314    2.8920257     7.584972  0.026917818 
  122600    2.9870557   0.16165858    2.9552249    7.5952267  0.015995997 
  122800    3.0260146   0.15822611    2.9235114    7.6184898  0.039013723 
  123000    2.9764326   0.14682817    2.9938873     7.603132  0.034499252 
  123200    2.9568327   0.14497096    3.0537419    7.6317442  0.032964286 
  123400    3.0342437   0.15334173    2.9384177    7.6408493  0.031730001 
  123600    3.0051284   0.14891562    2.9807685    7.6351229  0.016688061 
  123800    3.0680871   0.13142348    2.8876847    7.6189377  0.014561433 
  124000    3.0922498   0.13200674    2.8579942    7.6260565  0.019044405 
  124200    3.0398837   0.14848674    2.9328392    7.6388716  0.015868097 
  124400    3.0450703    0.1618221    2.9146642    7.6418081  0.036794852 
  124600    3.0202696   0.16381098    2.9302066    7.6221568  0.035597842 
  124800     2.975358   0.15717384    3.0255828    7.6435622  0.024271571 
  125000    2.9905286   0.14109675    3.0076729    7.6323197  0.021478326 
  125200    3.0214182   0.14743272    2.9696506    7.6469445  0.020976315 
  125400    3.0191204    0.1508524    2.9669805    7.6442492 0.00051642159 
  125600    3.0757394   0.15183049    2.8795486    7.6426813  0.019773525 
  125800    3.0364353   0.14376869    2.9556008    7.6517451  0.026486958 
  126000    3.0336526   0.14255498    2.9631653    7.6539239  0.020100805 
  126200    3.0939804   0.13216917    2.8830306    7.6538498  0.033058183 
  126400    3.0430161   0.14075967    2.9642055     7.667207  0.037475262 
  126600    2.9933476   0.13142775    3.0483542    7.6675584  0.016007113 
  126800    3.0680377   0.13729176    2.9408043    7.6778516  0.044365539 
  127000    3.0290624   0.15079047    2.9681637    7.6602759  0.013935304 
  127200    3.0471206   0.15829217    2.9036469    7.6303346  0.022212058 
  127400     3.052387   0.14742333    2.9185364    7.6422509 0.0041692268 
  127600    3.1013951   0.15067022    2.8434207    7.6438575  0.017299926 
  127800    3.0126395   0.15022179    2.9727899    7.6397114  0.016238536 
  128000    3.0317066    0.1496114    2.9430143    7.6379117  0.023357316 
  128200    3.0532946   0.15095315    2.9214563    7.6500614  0.028211367 
  128400    3.0445953   0.14798202    2.9593774    7.6719688  0.022552279 
  128600    3.0838055   0.13547718    2.9324918    7.6913644  0.023202782 
  128800    3.0599061   0.14350739    2.9811591    7.7122307  0.017774792 
  129000    3.0856843   0.15383226    2.9177196    7.6977639  0.024818315 
  129200      3.10607   0.14755871    2.9001511    7.7044853  0.017410638 
  129400    3.1085234   0.14337519    2.8914541     7.695283  0.027266703 
  129600    3.0408269   0.15265564    3.0126371    7.7242525   0.01316462 
  129800    3.0797885   0.15073633    2.9625832    7.7306924  0.026878404 
  130000    3.0907035   0.14112328    2.9485547    7.7234152  0.012576202 
  130200    3.0832728   0.13479888    2.9679919    7.7253875  0.032240261 
  130400    3.0116365   0.13140101     3.057613      7.70421  0.024824031 
  130600    3.0013987   0.14894571    3.0479268    7.6967196  0.030902376 
  130800     3.025632   0.15158115    3.0232606    7.7110205  0.020621129 
  131000    3.1020106   0.14437925    2.9119764    7.7070451  0.027192756 
  131200    3.0217354   0.14986545    3.0041062    7.6843084  0.020290196 
  131400    3.0243226   0.15690872    2.9958124    7.6869367  0.025492523 
  131600    3.0455438   0.15024285    2.9570284    7.6733028  0.015035208 
  131800    2.9957895   0.14246264    3.0352793    7.6691794   0.03475954 
  132000     2.986038   0.14152567    3.0561333    7.6744764   0.01435435 
  132200    3.0728506   0.14349856    2.9389627    7.6894325  0.028760962 
  132400    2.9810096    0.1506761    3.0826071    7.7025619  0.019140559 
  132600     3.069421   0.15268935    2.9458644    7.7003833  0.037468817 
  132800    2.9823983   0.14782508    3.0985751    7.7177609  0.027062796 
  133000     3.109074   0.13886249    2.9208292    7.7209709  0.019553585 
  133200    3.0920795   0.14097809    2.9425674    7.7193457  0.019133313 
  133400    3.1328294    0.1494962    2.8791514    7.7255421  0.028461801 
  133600    3.0409029   0.14932612    3.0087361     7.717136  0.011393507 
  133800    3.0776043   0.15015292    2.9591151    7.7233663  0.023732854 
  134000    3.0593378   0.15651996    2.9471686    7.6904008  0.027789089 
  134200    3.0129204   0.16413641    3.0263803    7.7076377   0.02331229 
  134400    3.0302928   0.15986607    2.9865465     7.689579  0.022003052 
  134600    3.0139055   0.14563488    3.0044568    7.6686896  0.023914653 
  134800    3.0919344   0.14464065    2.8984777    7.6787011  0.031826697 
  135000    3.0738589   0.15113315    2.9532987    7.7129149  0.028142451 
  135200    3.0916664   0.15498425     2.931962    7.7221271  0.035679014 
  135400     3.021755   0.16307247    3.0343744     7.727813  0.039581903 
  135600    3.0401844   0.16152295    3.0115572    7.7310766  0.031840895 
  135800    3.0390275   0.14532965     3.034945    7.7365367  0.029447911 
  136000      3.05977   0.14175699    3.0198839    7.7490011  0.023341502 
  136200    3.0370164   0.14156382    3.0584395    7.7532502  0.031668772 
  136400    3.0357417   0.13886028    3.0520148    7.7422108  0.018373466 
  136600    3.0210181   0.14079839    3.0693314    7.7393911  0.011717982 
  136800     3.069611   0.14754914    3.0008444    7.7505078  0.017292702 
  137000    3.1019221   0.14208705    2.9638427    7.7564865  0.013000232 
  137200    3.0581203   0.13895885    3.0260456    7.7498914  0.030063962 
  137400    3.0264961   0.14593345    3.0523845    7.7357923   0.02864673 
  137600    3.1053537   0.14930192    2.9499416    7.7549451  0.038786776 
  137800    3.0443566   0.14376232    3.0488682    7.7568821  0.013695021 
  138000    3.1162489   0.13534787    2.9594089     7.766793   0.03295015 
  138200    3.0562678   0.13687806    3.0615776    7.7805652 0.0054066335 
  138400    3.0991487   0.13514513    3.0043301    7.7858739  0.023308404 
  138600    3.1249258   0.14077898    2.9552081     7.781032  0.026219211 
  138800    3.0928746   0.15081797    2.9930916    7.7809018  0.033947603 
  139000    3.0811916   0.14485263    2.9976781    7.7620072   0.03145359 
  139200    3.1135403   0.13401563    2.9570172    7.7590082  0.032861596 
  139400    3.0951774   0.14423768    2.9702792    7.7549615  0.024116077 
  139600    3.1162323   0.15022541     2.965151    7.7873878  0.031970716 
  139800    3.0629675   0.14653284    3.0359079    7.7745947  0.012330986 
  140000     3.087915   0.14553986     3.003849    7.7789454  0.034623422 
  140200    3.1139564   0.13727717    2.9481823    7.7540586  0.026608208 
  140400    3.0511345   0.13548663    3.0268317    7.7367317   0.02355584 
  140600    3.0556086   0.15081076    3.0086876    7.7406195   0.01864924 
  140800    3.0600405    0.1442557    2.9973587    7.7293801  0.028704866 
  141000    3.1026895   0.13020114    2.9695985    7.7515069  0.022423723 
  141200     3.031031   0.13962723    3.0825069    7.7664073  0.015063125 
  141400    3.0537364   0.14438655    3.0161934    7.7388943  0.028320902 
  141600    3.0450219   0.14116629    3.0440257     7.750441  0.039032942 
  141800    3.0442042   0.13172317    3.0700644    7.7658108  0.031797789 
  142000    3.0543121   0.13081781    3.0423007    7.7522959  0.018830156 
  142200     3.082915   0.13964817    2.9744331    7.7361415  0.031331712 
  142400    3.0371787   0.15502873    3.0409914    7.7495104 0.00071104776 
  142600    3.0307457   0.15361487    3.0502872    7.7477475  0.022871331 
  142800    3.0148996   0.15157531    3.0473104     7.718974  0.017826825 
  143000    3.0441998   0.14723343    3.0186377    7.7298878  0.021960587 
  143200    3.0578087    0.1542675    3.0012733    7.7399604  0.022849016 
  143400    3.0876283   0.15557471    2.9712915     7.755993  0.030198292 
  143600     3.048892    0.1525892    3.0357825    7.7594231  0.020045802 
  143800    3.0773836   0.14621835     2.992323    7.7523086  0.045844743 
  144000    3.0454545   0.14313042    3.0351317    7.7441598   0.01002429 
  144200    3.1050057   0.13913625    2.9587708    7.7530869  0.050172327 
  144400    3.0215337   0.13270993    3.1096404    7.7723848  0.027054233 
  144600    3.0998067   0.15433339     2.978613    7.7803315  0.021998408 
  144800    3.0522531   0.15332968    3.0693523    7.7987724 0.0063015534 
  145000    3.1141455   0.13963757    3.0068663    7.8153865  0.022510896 
  145200    3.1027584   0.13742101    3.0283827    7.8176142  0.022520741 
  145400    3.0707082    0.1397257    3.0796158    7.8231007  0.026146215 
  145600    3.1007762   0.14331096    3.0407267    7.8328764  0.014552506 
  145800     3.111172   0.15226475     3.019915    7.8366043  0.021026754 
  146000    3.0468435   0.16261862    3.1057259    7.8363247   0.02488955 
  146200    3.0739959   0.15981882    3.0681679    7.8366751  0.038641801 
  146400    3.0692416   0.15170164    3.0438393    7.7971014  0.045371439 
  146600    3.0712253   0.16507418    3.0125119    7.7821206  0.027660545 
  146800     3.068382   0.15481656    3.0167738    7.7718621  0.038430106 
  147000    3.0674668   0.14738295    2.9877645     7.734047  0.023647099 
  147200    3.0097694   0.14413043    3.0604812    7.7170083  0.006761295 
  147400    3.0475957    0.1608441    2.9716535    7.7016055  0.027362483 
  147600    2.9669223   0.15793887    3.1163707    7.7224679  0.019445299 
  147800    2.9920078   0.16771945    3.0635819     7.717069  0.030208628 
  148000    3.0657685   0.17272993    2.9766967    7.7457801  0.036598077 
  148200    3.0155692   0.16072434    3.0643525     7.746169  0.020840703 
  148400    3.0088189   0.16308056    3.0635965    7.7376488  0.017069663 
  148600    3.0496142   0.15701891    3.0049711    7.7341241  0.025781025 
  148800    3.0823641   0.14964996    2.9640013    7.7348857  0.016291958 
  149000    3.0661813   0.15489478    2.9950635    7.7469306   0.03713625 
  149200    3.0377356   0.14764677    3.0343808    7.7363526  0.026251202 
  149400    3.0486268    0.1494331    3.0073997    7.7274864  0.021860163 
  149600    3.0999537   0.13697701    2.9503352    7.7349178  0.025689789 
  149800    3.0419069   0.14320716    3.0121357    7.7159217  0.014566799 
  150000    3.0831194   0.15050368    2.9353793    7.7082498  0.019389456 
  150200    3.0654122      0.14716    2.9760873    7.7190665  0.017764018 
  150400    3.0312111    0.1496552    3.0256603    7.7198588  0.030524593 
  150600    3.0949781   0.15073663    2.9157756    7.7066582  0.026692198 
  150800    3.0992151   0.14877126    2.9179059    7.7131754  0.033534665 
  151000    3.0319563   0.14998081    3.0124065    7.7080478    0.0271502 
  151200    2.9974219    0.1618844    3.0664889    7.7222582 0.0066597051 
  151400    3.0566202    0.1785272    2.9347337    7.6958987  0.029389795 
  151600    3.0553993   0.15905512    2.9641308    7.7039933   0.02498192 
  151800     3.068645   0.14992608    2.9633216    7.7139137  0.016866448 
  152000    3.1329406   0.14670832    2.8532781    7.6970477  0.044205436 
  152200    3.0526776   0.14615391    2.9750084    7.6978892  0.019179786 
  152400    3.0583464   0.13878155    2.9402502    7.6642576   0.02860275 
  152600     3.063199   0.13161469    2.9463297    7.6704456  0.024528573 
  152800    3.0369559   0.13652186    2.9885818    7.6782598  0.026873968 
  153000    3.0485834   0.14192429    2.9732635    7.6857764  0.012928808 
  153200    3.0748761   0.15280447    2.9278821    7.6906947   0.03433324 
  153400    3.0649889   0.15665252    2.9482719     7.700109  0.029654941 
  153600    3.0744873   0.15090508    2.9254127    7.6857429  0.021213785 
  153800    3.0882334   0.14083934    2.9095799    7.6804532   0.03220281 
  154000    3.0344599   0.14615431    2.9947348    7.6903031   0.02402525 
  154200    3.0443999   0.16927778    2.9235967     7.657191  0.021046643 
  154400    3.0165855   0.14472527    3.0285164    7.6958575  0.023496836 
  154600    3.0731874   0.14037178    2.9538744    7.7017223  0.036789813 
  154800    3.0659838   0.14345302    2.9634415    7.7035707  0.024567006 
  155000    3.0216063   0.14878519    3.0224277    7.7013561  0.036208359 
  155200     3.061858   0.14590344    2.9651992    7.7015932  0.030767982 
  155400    3.0434044    0.1530327    2.9891948    7.7050514  0.019492743 
  155600    3.0819295   0.13918754    2.9241256     7.683896  0.024716199 
  155800    3.0773607   0.14116055    2.9422435    7.6971371  0.030398015 
  156000    3.0184047   0.14804268    3.0111712    7.6845571  0.010144512 
  156200    3.0918716   0.14474604    2.9133297    7.6935642  0.032176741 
  156400    3.0480779   0.14224596    3.0043534    7.7164301  0.014776793 
  156600     3.054151   0.15643761    2.9740936    7.7094671  0.031034074 
  156800    3.1320249   0.14948292    2.8855396    7.7307108   0.03774849 
  157000    3.0505188   0.13991859    3.0094864    7.7228953  0.018469419 
  157200    3.1023563   0.14163383    2.9163192    7.7091607  0.048828564 
  157400    3.0342776   0.15217011    3.0272325    7.7285433  0.014386783 
  157600    3.1065591   0.15810516     2.902853    7.7184669  0.028921339 
  157800    3.0394334   0.14142238    3.0342565    7.7325494   0.01350676 
  158000    3.0531006    0.1518273    2.9988017    7.7279901     0.023551 
  158200    3.0916812   0.15247617    2.9536433    7.7413224   0.03593824 
  158400    3.0672962    0.1513035    2.9733193    7.7232666  0.010203308 
  158600     3.109012   0.14399297     2.883035    7.6882143  0.034650603 
  158800    3.0855458   0.14083478    2.9113336    7.6781729  0.033595407 
  159000    3.0697162   0.14361544    2.9294955    7.6753829  0.031382468 
  159200    3.0278994   0.15529477     2.984796    7.6796689  0.022972172 
  159400    3.0362006   0.15465317    2.9823512    7.6890281   0.01649811 
  159600    3.0704857    0.1571936    2.9444632    7.7050825  0.014501649 
  159800    3.0991126   0.14755664    2.9218375    7.7157387  0.026005929 
  160000    3.0575771   0.15570433    2.9637456    7.7035225  0.031116365 
  160200    3.0867722   0.15518909    2.9317942    7.7148265  0.025111949 
  160400    3.0172015   0.14484741    3.0389459    7.7073327  0.010964018 
  160600    3.0711449   0.14931103    2.9523548    7.7060798  0.030465705 
  160800    3.0309804   0.16498573    3.0170149     7.726198  0.012803019 
  161000    3.0854381   0.16301441     2.978005    7.7668625  0.026230083 
  161200    3.0619614   0.14649429    2.9997451    7.7368851  0.017201784 
  161400    3.0793663   0.13344127    2.9854734    7.7356546  0.024192318 
  161600    3.0927487   0.15003716    2.9642062    7.7510468  0.029853139 
  161800      3.05503   0.13995326    3.0265905    7.7467975  0.012393775 
  162000    3.1130762   0.14175008    2.9285619    7.7375915  0.032587857 
  162200    3.1175546   0.15168821    2.9241775    7.7498595  0.031623249 
  162400    3.0985701   0.15505225    2.9590885     7.759672  0.016608291 
  162600    3.0638591   0.15611261    3.0050581    7.7546614  0.025777115 
  162800    3.0675241   0.14747886    2.9928427    7.7393071  0.027199878 
  163000    3.0872383   0.14938985    2.9611432     7.739075  0.016673977 
  163200    3.0836049   0.15780349    2.9496951    7.7305932  0.025320341 
  163400    3.0546798   0.16284368    3.0094932    7.7520656  0.018864933 
  163600    3.0737497   0.15935907    2.9638192    7.7314975  0.013559035 
  163800    3.0832918   0.14759491    2.9397256    7.7099458  0.026017239 
  164000    3.0431808   0.14188898    2.9874741    7.6918518  0.016361414 
  164200    3.0125803   0.14410025    3.0333061    7.6940175  0.027148933 
  164400    3.0834986   0.14744002    2.9384086    7.7087839  0.021038467 
  164600    3.0931749   0.14774113    2.9313811    7.7165647  0.028804039 
  164800    3.0947157   0.14133911    2.9498983    7.7309898   0.02521383 
  165000    3.0735178   0.14171391    2.9819426    7.7316282  0.032584702 
  165200    3.0569084   0.14497566    2.9955133    7.7235589  0.029409852 
  165400    3.0708288   0.15423925    2.9833087    7.7414881  0.024783084 
  165600    3.1172781   0.14579664    2.9351188    7.7544946  0.023712363 
  165800    3.0601766   0.13122232    3.0157282    7.7349203  0.017175053 
  166000    3.0311288   0.13871307    3.0369952    7.7201282  0.031962717 
  166200    3.0597172   0.13824645    2.9949308    7.7204582  0.029915492 
  166400    3.0527228   0.14458818    2.9914841    7.7128669  0.021737434 
  166600    3.0685055   0.14021235    2.9794293    7.7200984  0.027538419 
  166800    3.1113471   0.14202431    2.9279639    7.7346754  0.041494969 
  167000    3.0599291   0.14735557     3.024843    7.7597974  0.032101068 
  167200     3.051697   0.15835295    3.0129387    7.7465484  0.034571898 
  167400    3.0783159   0.15214365    2.9941656    7.7614743  0.025793019 
  167600    3.0716859   0.15558344    3.0017309    7.7625395   0.01588732 
  167800    3.0859992   0.15225961    2.9805042    7.7594481  0.019136711 
  168000    3.0970799   0.14732583    2.9608675    7.7514904  0.027139741 
  168200    3.0263021   0.13307416    3.0874135     7.757671  0.016671162 
  168400    3.1075292   0.13721959    2.9563588    7.7525415    0.0293014 
  168600    3.1119394   0.14560197    2.9599328    7.7711098   0.02451772 
  168800    3.0556232   0.13986778    3.0219705    7.7429814  0.023935346 
  169000    3.0687119   0.14360153    2.9682542     7.712622  0.017714831 
  169200    3.0503662   0.14950758    3.0029715    7.7257405  0.025525026 
  169400    3.0728295   0.13288476    2.9700319    7.7098563  0.019440411 
  169600    3.0685268   0.13271143    2.9720417    7.7052419  0.032850255 
  169800    3.0960346   0.13324302    2.9246194    7.6995923  0.023552969 
  170000    3.0325132   0.15248339    2.9738329    7.6728116  0.032296805 
  170200    3.0489144   0.14160557    2.9849182    7.6976087  0.026017319 
  170400    3.0663632   0.14311721    2.9561079    7.6964701  0.019229576 
  170600    3.0244333   0.14960777    3.0338288    7.7178182  0.025491494 
  170800    3.0107452   0.15877448    3.0509058      7.72354  0.019844371 
  171000    3.0613962   0.14865516    2.9845541    7.7230076  0.023784498 
  171200    2.9946652   0.14534551    3.0934255    7.7285228  0.015664048 
  171400    3.1064529   0.14470637    2.8949664    7.6970222  0.028796996 
  171600    3.0241165   0.13333895    3.0343066    7.7015522  0.022074975 
  171800    3.0494071   0.13252573    2.9777442    7.6820935  0.023226287 
  172000    3.0384581   0.13702556    2.9819391     7.674373  0.020643016 
  172200    3.0448496    0.1376341    2.9727536    7.6753785  0.035730854 
  172400    2.9825434   0.13314025    3.0851353    7.6898538  0.014252495 
  172600    3.0126785   0.13068807    3.0347422    7.6821885 0.0082026003 
  172800    3.0291252   0.14041233    2.9778356    7.6596639  0.023257373 
  173000    3.0092952    0.1524564    2.9744997     7.638642  0.018579882 
  173200    3.0807096    0.1511397    2.8802152    7.6501087  0.010936496 
  173400    3.0328179   0.14529038    2.9616025    7.6538451  0.012341271 
  173600    3.0482715   0.15321016    2.9346446    7.6579759  0.030333255 
  173800    2.9869972   0.14408802    3.0082978    7.6306414  0.010667788 
  174000    3.0460666   0.14960051     2.927954    7.6443699  0.038565789 
  174200    3.0136896   0.14721439    2.9618365     7.627325  0.015126477 
  174400    3.0549032    0.1471932    2.8869135    7.6141703  0.026145552 
  174600    2.9966328    0.1384364    3.0008975    7.6320356 0.0099934017 
  174800    3.0899967   0.13831883    2.8504195    7.6214159  0.034002742 
  175000     2.982155   0.14788962    2.9988606    7.6177461 0.0098955326 
  175200    3.0033103   0.15428719    2.9573343    7.6143345  0.027079076 
  175400    2.9982621   0.15183185    2.9759047    7.6228809  0.018088412 
  175600    3.0187133   0.13109322    2.9766412    7.6335403  0.013407983 
  175800    3.0068804     0.129593    2.9648206    7.6024791  0.019026871 
  176000    3.0144061   0.14489712    2.9289252    7.5931707  0.025673206 
  176200    3.0586207   0.14338045     2.884552    7.6135696  0.014057168 
  176400    3.0709406     0.152635    2.8580514    7.6147941  0.018555694 
  176600    3.0216695   0.14557622    2.9379025    7.6137168  0.016024739 
  176800    3.0696025   0.12984908    2.8689033     7.600854  0.028060177 
  177000    2.9630033   0.14009162    3.0378044    7.6201787  0.014542877 
  177200    3.0552797    0.1410896    2.9080273     7.629745  0.035595975 
  177400    3.0324989   0.14668691     2.936129    7.6292899   0.02125319 
  177600    2.9745251   0.15463029    3.0121735    7.6263605  0.033154575 
  177800     2.997932   0.14829821    2.9858384    7.6287861  0.033214788 
  178000    2.9941284   0.16021186    2.9775982    7.6267572   0.03665598 
  178200    3.0417899   0.14607452    2.9188655    7.6253435  0.030622203 
  178400    2.9916077    0.1319571    2.9920056    7.6091306  0.016826883 
  178600    2.9924518   0.13297943    2.9859065    7.6053194  0.022624181 
  178800    3.0146045   0.13738017    2.9456578    7.6026838  0.024747323 
  179000     3.034994   0.14305756    2.9228611    7.6161335  0.026818775 
  179200    3.0480068   0.14133324    2.9096321    7.6206895  0.025509317 
  179400    3.0150689   0.13537152    2.9787996    7.6345131  0.017789145 
  179600     3.042492   0.15305416    2.9144541    7.6289644  0.028407466 
  179800    2.9700854     0.153842    3.0358046    7.6425472 0.0077541785 
  180000    3.0272619   0.14939057     2.957108    7.6451211  0.031609691 
  180200    3.0121662   0.14416725      2.98436    7.6445174  0.023947026 
  180400    3.0303753   0.13436677    3.0016325    7.6792895  0.025972289 
  180600    3.0390686   0.13085388    3.0143825      7.70156  0.013848852 
  180800    3.0681819   0.13492663    2.9609363    7.6958346  0.038356388 
  181000    3.0372602   0.13238589    2.9957946    7.6817929  0.016769056 
  181200    2.9970847   0.14024376    3.0489998    7.6826228 0.0091834797 
  181400    3.0354577   0.13984406    2.9779185    7.6686725  0.017997847 
  181600    3.0395618   0.15927366    2.9599224    7.6762591  0.027989154 
  181800    3.0136145   0.14727779    3.0189571    7.6843965  0.011771698 
  182000    3.0594949   0.14237907     2.963453    7.6927798  0.012767733 
  182200    3.0655654     0.137429    2.9489809    7.6824589  0.025351069 
  182400    3.0355094   0.13439476    3.0072515    7.6926337  0.020255952 
  182600    3.0217666   0.13904508    3.0111841    7.6806127  0.027458882 
  182800    3.0448149   0.14476812    2.9516123    7.6613191  0.025312633 
  183000    2.9713272   0.14356104    3.0398894    7.6382128  0.031182113 
  183200    3.0549273   0.14703544    2.9422818     7.669417  0.035755803 
  183400    3.0287944   0.14044271    3.0033004     7.684663 0.0062051387 
  183600    3.0932523   0.14319235      2.92776    7.7085108  0.020566489 
  183800     3.048329   0.14595981    2.9999449     7.716112   0.01718626 
  184000    3.0657535   0.14225944    2.9522711    7.6908614    0.0239628 
  184200    3.0476558    0.1521448    2.9562797    7.6776224  0.019525017 
  184400    2.9954824   0.15675061    3.0378518    7.6855794   0.03427381 
  184600    3.0240435   0.14882371    2.9875376    7.6701585  0.032411559 
  184800     3.016855   0.15341483    2.9952392    7.6716739  0.035095278 
  185000    2.9931716   0.15029554    3.0385667    7.6763748  0.038907477 
  185200     3.057651    0.1395182    2.9320947    7.6557962  0.034394091 
  185400    3.0566546   0.14601579    2.9248483    7.6535535  0.019349139 
  185600    3.0438287   0.13943452    2.9352732     7.638168  0.010911087 
  185800    3.0503578   0.14335234    2.9094136    7.6260149   0.01867473 
  186000    3.0622247   0.14755738    2.8924932    7.6310909   0.03578687 
  186200    3.0188354   0.13859678    2.9772246    7.6418104  0.010837307 
  186400    3.0653401   0.14272775    2.9212078    7.6596468   0.03168035 
  186600    3.0517601   0.14044142    2.9525551    7.6683479  0.025353894 
  186800    2.9853184   0.14389098     3.042913    7.6625426  0.018257305 
  187000    3.0595343   0.15981733    2.8999744    7.6467985  0.040048402 
  187200    3.0077082   0.15739006     2.971197    7.6378935  0.037126547 
  187400     3.004166   0.16063987    2.9693066    7.6339423  0.020469849 
  187600    3.0420704   0.15792415    2.9008686    7.6196168  0.025422599 
  187800    2.9973682   0.14796841    2.9858115    7.6275842  0.032521078 
  188000    3.0342629   0.15010064    2.9128468    7.6120662  0.028527296 
  188200     3.032671   0.15113849    2.9294102    7.6272806  0.015018347 
  188400    3.0763929   0.14479704    2.8686014    7.6256804  0.019263525 
  188600     3.030445   0.15430763     2.901972    7.5996743  0.031087851 
  188800    3.0367844   0.14296392    2.9143918    7.6102548  0.030471649 
  189000    2.9772918   0.14061874    3.0008593    7.6051827  0.030222448 
  189200    3.0733942   0.12802147    2.8575646    7.5933723  0.017996529 
  189400    3.0685131   0.14090402    2.8540138    7.5953862  0.022127737 
  189600    3.0001617   0.14115366    2.9600013    7.5991474  0.008805864 
  189800    3.0208467   0.13519114    2.9455861    7.6097816 0.0078601367 
  190000    3.0496723   0.13515602    2.9167653    7.6241425  0.027925139 
  190200    3.0087245   0.14431375    2.9715662    7.6267101  0.032054262 
  190400    3.0619753   0.14867222    2.8968553     7.636194  0.023278331 
  190600    3.0127713   0.14642705    2.9786722    7.6419966  0.037072077 
  190800    3.0215373   0.14205447    2.9469538     7.619048  0.021876387 
  191000    3.0667781   0.14628925    2.8975203    7.6416766  0.024655071 
  191200    3.0556742    0.1393151    2.8991669    7.6197016 0.0092575545 
  191400     3.016352   0.14356823    2.9348569    7.6006909   0.01849329 
  191600    3.0321835   0.14824262    2.8878042     7.582048  0.022943191 
  191800    2.9705072   0.14708043    2.9890396     7.589653 -0.00090421184 
  192000    2.9913454   0.14883706    2.9372471    7.5708587   0.01907776 
  192200    3.0387631   0.14016855     2.845155    7.5411891  0.031515114 
  192400    2.9761326    0.1408343    2.9756547    7.5784557   0.01690917 
  192600    2.9529561   0.14712765    2.9953948    7.5697419 0.0045378764 
  192800    2.9800967   0.14510512    2.9701919    7.5832071  0.017421005 
  193000    2.9584021   0.14824071    3.0050247    7.5886497  0.025964395 
  193200    3.0146864   0.14682152    2.9346435    7.6012336  0.033751151 
  193400    3.0012742   0.14815049    2.9499688    7.5977796  0.018402055 
  193600     2.991002    0.1447763    2.9800722    7.6091083  0.022436181 
  193800    2.9582032   0.14379895    3.0514578    7.6303429  0.015466696 
  194000    3.0618982   0.15459673    2.8907419    7.6358895  0.035078836 
  194200    3.0383355   0.14643091    2.9462194    7.6478749   0.01616175 
  194400    3.0278294   0.13909021    2.9666413    7.6452047  0.014955018 
  194600    3.0351831    0.1547127    2.9557594    7.6609703  0.016576672 
  194800    3.0502881   0.13681612    2.9533262    7.6632867  0.019105905 
  195000     3.046007   0.13300212    2.9655556    7.6652837  0.014776004 
  195200    3.0920612   0.14365001    2.9015364    7.6809592  0.019429976 
  195400    3.0622671   0.14086182    2.9484275    7.6803932  0.018365544 
  195600    3.1044771   0.14533145    2.8501895    7.6499083  0.022976158 
  195800    3.0157945   0.14362524    2.9721404    7.6371956  0.018216296 
  196000     2.970551   0.13711068    3.0260608      7.61677  0.023967948 
  196200    2.9881421   0.14155107    2.9802346    7.6017577  0.018917206 
  196400    3.0662227   0.14474043    2.8838453    7.6256202  0.021420216 
  196600    3.0377904    0.1366342    2.9141316    7.6051731  0.022683184 
  196800    2.9860964   0.15206654    2.9468598    7.5758313  0.030676785 
  197000     3.026415   0.14455024    2.8947029    7.5766058  0.029494911 
  197200    3.0192917   0.14842224    2.9013656    7.5764609  0.036047081 
  197400    3.0028927    0.1514064    2.9224501    7.5759434  0.023789218 
  197600    3.0227639   0.14682049    2.9259964    7.6046956   0.02329235 
  197800    3.0091804    0.1569894    2.9435922    7.6120954  0.023113419 
  198000     3.002669   0.15233842    2.9570828    7.6111728  0.030538702 
  198200    2.9960297   0.14232681    2.9826354    7.6167598  0.016897008 
  198400    3.0253234   0.13185087    2.9282456    7.5958126  0.018834444 
  198600    3.0574859   0.12942319    2.8769744    7.5903332  0.018257989 
  198800    3.0482792   0.13459414    2.8815975    7.5863242  0.022095534 
  199000    3.0291129   0.14715391    2.9070591    7.5956105  0.016709409 
  199200    3.0581823   0.14896778    2.8525068    7.5864544  0.040864202 
  199400    2.9957219   0.15032903    2.9685784    7.6102435  0.024619223 
  199600    3.0188574   0.14006128    2.9016268      7.56771  0.025259631 
  199800    2.9766614   0.14657934    2.9648247    7.5741637  0.021821157 
  200000    3.0190677   0.14562054     2.938131    7.6100888  0.022485014 
  200200    3.0359711   0.14984476     2.897056    7.5985804   0.01841359 
  200400    3.0087379   0.16146027    2.9467496    7.6190601  0.026018917 
  200600    3.0100355   0.15283859    2.9533646    7.6189989  0.029262647 
  200800    3.0034842   0.15436235    2.9670646    7.6244006  0.032097129 
  201000    2.9798792   0.14092069    3.0187431    7.6272478  0.025214984 
  201200    3.0062634   0.13425174    3.0028513    7.6442434 0.0091505708 
  201400    3.0256897    0.1400851    2.9486971    7.6250475  0.031756858 
  201600    3.0076559   0.14620567    2.9799792    7.6354129    0.0206204 
  201800    3.0066512   0.14569596    3.0073386    7.6607564  0.028179656 
  202000    3.0131016   0.14954286    2.9867472    7.6536827  0.016357287 
[...]
  454200    2.9960749   0.14321795    2.9068495    7.5419327   0.01864815 
  454400    2.9645675   0.14813865     2.951842    7.5446085 0.0061333291 
  454600    2.9965946   0.15378424    2.8863644    7.5327931  0.010880031 
  454800    2.9707027    0.1580596    2.9276475    7.5395332  0.015866424 
  455000    2.9599333    0.1481514    2.9185374    7.5043688  0.042045477 
  455200    2.9849169   0.14455187    2.8929768    7.5126654  0.036592951 
  455400    2.9613995   0.14471118    2.9319712    7.5165605  0.018934404 
  455600    2.9580113   0.15072661    2.9289822    7.5145072  0.017330477 
  455800    2.9592205    0.1415383    2.9263016    7.5044512   0.02233953 
  456000    2.9902979   0.13717795    2.8860496    7.5064317  0.024393444 
  456200    2.9426113   0.14210396    2.9429305    7.4967444  0.021242188 
  456400    2.9849894   0.13748159    2.8710255    7.4837524  0.018147615 
  456600    2.9589929   0.12959397    2.9253806    7.4912447  0.026980514 
  456800    2.9715661   0.14092404    2.8944637    7.4905082  0.029473353 
  457000    2.9473075   0.14028003    2.9405332    7.4995641  0.014834402 
  457200    3.0337159   0.12732685    2.8175346    7.4931601  0.023758244 
  457400    2.9832059   0.12527541    2.8896216    7.4874685  0.012864657 
  457600    2.9846226   0.12923733    2.8966432     7.500576  0.010603033 
  457800        3.001   0.14160922    2.8655034    7.5063619  0.019724987 
  458000    2.9590344   0.14723513    2.9376263    7.5211937  0.011857669 
  458200    2.9214588   0.14887289    2.9845027    7.5133727  0.035433915 
  458400    3.0025013    0.1658026    2.8523923    7.5196949  0.030332033 
  458600    2.9496114   0.15221284    2.9378889    7.5123066  0.026001544 
  458800    2.9914597   0.13678949    2.8840617    7.5057972  0.019960878 
  459000    2.9792908   0.13214322    2.8936199    7.4924648  0.013742651 
  459200    2.9760312   0.13013301    2.8982839    7.4902316  0.018057197 
  459400    3.0114003   0.13833982    2.8539764    7.5071581  0.020449725 
  459600    2.9689181   0.13779667    2.9239099     7.512857  0.024170341 
  459800    2.9748435   0.13733521    2.8831109    7.4804803  0.013039231 
  460000    2.9830752   0.15541562    2.8546551    7.4824462  0.034604592 
  460200    2.9690863   0.16099917    2.8483366    7.4607384  0.044356606 
  460400    2.9238403   0.14762209      2.93589    7.4670797  0.019616814 
  460600    2.9631005   0.15299327    2.8722025    7.4676242  0.032123712 
  460800    2.9165457   0.14357792     2.957452    7.4736611 0.0037282693 
  461000    2.9579553   0.14758822    2.8914204    7.4737232   0.02020885 
  461200    2.9450602   0.15168078    2.8903958    7.4574581  0.021147187 
  461400    2.9961137   0.16025335    2.8296662     7.481843  0.029518219 
  461600    2.9704464   0.14830224    2.8939393    7.4956833  0.028527328 
  461800    3.0160998   0.13576087    2.8365721    7.4942205  0.029639063 
  462000    2.9972437   0.14123101    2.8636298    7.4984784  0.012089124 
  462200    2.9970291   0.13151394    2.8896281     7.514438  0.019607501 
  462400    2.9776211   0.13797736    2.9144462     7.516622  0.014410676 
  462600    2.9555724   0.14664009    2.9436815    7.5214635  0.021852059 
  462800    2.9739064   0.14978114    2.9241309    7.5325412  0.022203866 
  463000    2.9898104   0.14148323    2.8820598    7.5060163  0.020808137 
  463200    3.0094903   0.13526831    2.8436607    7.4909073  0.025321162 
  463400    2.9687655   0.14623761    2.8796628     7.476822   0.02747059 
  463600    2.9757478    0.1448681    2.8941216    7.5003796  0.014734934 
  463800    2.9948274    0.1399995    2.8729742    7.5029686  0.022321198 
  464000    2.9683931   0.14335404    2.8898093    7.4835266  0.010094108 
  464200    2.9645972   0.13588685    2.9102423    7.4908016  0.012481643 
  464400    2.9198615   0.13109104    2.9903135    7.4990068 0.0048035104 
  464600    2.9724869   0.13849347    2.9173855      7.51238  0.024092107 
  464800    2.9307198   0.14302569    2.9832909    7.5201983  0.021861096 
  465000    3.0098738   0.14833813    2.8656898    7.5265812   0.03185305 
  465200     2.953445   0.14658879    2.9665798    7.5411209  0.028630619 
  465400    3.0187523   0.14921176    2.8697391    7.5448153   0.01595063 
  465600    2.9956198   0.13679064    2.9151783     7.543152  0.014219602 
  465800    3.0517064   0.14476482    2.8258034    7.5458391  0.016121466 
  466000    3.0567529   0.15175954    2.8328923    7.5674887  0.019531747 
  466200    3.0034036   0.13815567    2.9688859    7.6098945  0.024515723 
  466400    3.0565527   0.13500208     2.924324    7.6418627  0.025678234 
  466600    3.0221386   0.14705695    2.9520902    7.6300885  0.022651695 
  466800     2.991746    0.1487904     3.024064    7.6582296  0.031782689 
  467000    2.9714717   0.14590829    3.0409984    7.6418857  0.017882192 
  467200    2.9890751   0.15113882    3.0124222    7.6449318  0.035481001 
  467400    2.9824477   0.14409236    3.0258516    7.6413786  0.015447381 
  467600    3.0445248   0.13824958     2.932005    7.6347584 0.0082937933 
  467800    3.0559437   0.13639074    2.9111587    7.6291729  0.024779514 
  468000    3.0647154   0.13890159    2.8709094    7.6045856  0.017641299 
  468200    3.0614062   0.14336855    2.8679256    7.6011074  0.023485567 
  468400    3.0132137    0.1390334    2.9460291    7.6026231  0.018909491 
  468600    3.0549769   0.13717239    2.9013845     7.618731  0.022707936 
  468800    3.0483801    0.1276699    2.9270575    7.6250112  0.025668722 
  469000     3.009523   0.13352708    2.9549054    7.6004599  0.026378928 
  469200    3.0079499   0.14838737     2.946948    7.6050043  0.022872091 
  469400        3.024   0.15389103    2.8885998    7.5762228  0.028586281 
  469600    3.0377079   0.15782197    2.8342034     7.546309  0.031606904 
  469800    2.9844664   0.14786415    2.9245624    7.5468877  0.015220208 
  470000    2.9993867   0.13507753    2.8980528    7.5299608  0.025665219 
  470200    2.9679727   0.13930621    2.9435181    7.5325575  0.024463047 
  470400    2.9867186   0.14476771    2.9435243    7.5661298  0.037646913 
  470600    2.9785496   0.13806368    2.9610155    7.5646696  0.024725645 
  470800    2.9977178   0.15079324    2.9480326    7.5931542   0.02677693 
  471000    2.9953347   0.15155761      2.95566    7.5979732  0.012143602 
  471200    2.9880911   0.15006479    2.9815685    7.6115289  0.018199879 
  471400    2.9878713    0.1393701    2.9920753    7.6110115  0.020103524 
  471600    3.0013319   0.14338182    2.9834181    7.6265467  0.034506921 
  471800    3.0042019   0.15087979    2.9942832    7.6492127  0.013821341 
  472000    3.0213769   0.14568642    2.9593496    7.6348354  0.032318013 
  472200     2.981338   0.14832882    3.0023778    7.6204776 0.0016762705 
  472400     3.021792   0.14095827    2.9609848    7.6323647   0.02018742 
  472600    2.9796856   0.14042344    3.0129614    7.6206784  0.015859967 
  472800    3.0064455   0.14086635    3.0126145    7.6608943  0.014874826 
  473000    3.0448773   0.14432818    2.9533414    7.6627019  0.035941361 
  473200    3.0243474   0.13826114    2.9885074    7.6610214 0.0081981938 
  473400    3.0435051   0.13176193    2.9834702    7.6782071  0.038960317 
  473600    3.0412361    0.1417513    2.9712746    7.6725991  0.024996783 
  473800    3.0000627   0.14855377    3.0074233    7.6538211  0.029127371 
  474000     3.032099    0.1504226    2.9545789    7.6508759   0.01857269 
  474200    3.0384688   0.15090518     2.956741    7.6630705  0.033805746 
  474400    3.0232207   0.14159975    2.9862958    7.6604591  0.014056294 
  474600    3.0111972   0.14624868    2.9988746    7.6596607   0.01924954 
  474800     3.071472   0.13730521     2.930736    7.6729456  0.039081817 
  475000    2.9641326   0.15096799     3.065074    7.6600179  0.017838658 
  475200    3.0264219   0.16976297    2.9807549    7.6878809  0.025415376 
  475400    3.0612933   0.15902709    2.9243483    7.6730194  0.026655214 
  475600    3.0447082   0.15949902    2.9576461    7.6819239  0.032286087 
  475800    3.0467435   0.14845178    2.9848803    7.7011623  0.027118469 
  476000     2.979443   0.15572787    3.0583304    7.6809881  0.017384359 
  476200    3.0233356   0.14085099     2.998105     7.671692  0.024551625 
  476400    3.0868673   0.14030971     2.905407    7.6737024  0.013837006 
  476600    3.1024185   0.14407565     2.884886    7.6802627  0.030739167 
  476800    3.0234513   0.14005124    2.9883897    7.6613503  0.021433534 
  477000    3.0329722    0.1409309    2.9910613    7.6791757  0.015559272 
  477200    3.0386794   0.15062919    2.9515962    7.6579654  0.029273694 
  477400    3.0323415   0.14472234    2.9597628    7.6507232  0.020112025 
  477600    3.0619392   0.14513888     2.914914    7.6506653  0.011508438 
  477800    3.0406855   0.15036781    2.9514661    7.6605816  0.015481603 
  478000    2.9876669   0.14446828    3.0491613    7.6728892  0.021051445 
  478200    3.0406485   0.14586522    2.9384403    7.6429978   0.03477652 
  478400    3.0266982   0.13804729    2.9709971    7.6468217  0.025209906 
  478600    3.0733259   0.13470544    2.8693585    7.6117478  0.025489269 
  478800    3.0559981   0.13383892    2.8999388    7.6154829   0.02103322 
  479000    3.0526567   0.14464071    2.8876425    7.6089787  0.029028856 
  479200     3.053429   0.14391155    2.8679568    7.5897218  0.027858659 
  479400     3.051257   0.14360438    2.8894282    7.6076296  0.025570966 
  479600    2.9876603   0.15285816    2.9647881     7.596896 0.0080566388 
  479800    3.0315623   0.15029145    2.8756432    7.5710044  0.048395704 
  480000    2.9864313   0.14451515    2.9517037    7.5736261 0.0065600938 
  480200    3.0509235   0.15702783    2.8617805    7.5929053  0.020647654 
  480400    3.0358171   0.14529204    2.9015199    7.5982607  0.013824205 
  480600    3.0564115   0.14722401    2.8758874    7.6054364  0.030050256 
  480800    3.0429246   0.14678202    2.9069146    7.6158014  0.014165203 
  481000    3.0044404   0.14263894    2.9429874    7.5900336  0.032328585 
  481200      2.96689   0.14213111     3.002607    7.5928479  0.015813035 
  481400    2.9817053   0.13856206    2.9740604    7.5829442  0.021745401 
  481600    3.0566376   0.14426765    2.8627676    7.5896992  0.025464235 
  481800    3.0650621   0.13726875    2.8543571    7.5869202  0.024640984 
  482000    3.0481458   0.12973255    2.8798814    7.5795466  0.027826776 
  482200    2.9930457   0.12651033    2.9825542    7.5963883  0.020053132 
  482400    3.0429842   0.13690473    2.9148169    7.6139157  0.036567572 
  482600    2.9560093     0.148944    3.0358468    7.6165878  0.030645963 
  482800    2.9740772   0.14682628    2.9848147    7.5905262  0.020916506 
  483000    3.0805533   0.13946596    2.8327188    7.5907043  0.021779132 
  483200    2.9557396   0.13727519    3.0239764    7.5926442  0.013861275 
  483400    3.0537347   0.13629544    2.8923251    7.6069323  0.020350559 
  483600    3.0664338   0.14549728    2.8785762    7.6214244  0.016321245 
  483800    3.0273386    0.1504669    2.9430545    7.6322587  0.023634526 
  484000    2.9735307   0.14317742    3.0206312    7.6218745  0.011880713 
  484200    3.0216589   0.14430673    2.9210154    7.5955442  0.019634482 
  484400    3.0627555   0.14561835    2.8533213    7.5907758  0.019613837 
  484600    3.0589234   0.14873121    2.8471941    7.5820161  0.028454689 
  484800    3.0496138   0.14672696    2.8470959    7.5659564  0.021561429 
  485000    2.9744402   0.15375032    2.9236029    7.5367827  0.026175695 
  485200     2.981217    0.1549789     2.890244    7.5148124  0.018515401 
  485400    2.9723849   0.14578016     2.919941    7.5220692  0.031159482 
  485600    2.9969379   0.13194417    2.8719965    7.4970998   0.02917331 
  485800    2.9946791   0.13842482    2.8908841    7.5190815  0.025711235 
  486000    3.0483571   0.15048249    2.8019686    7.5227005  0.020239501 
  486200    3.0248106   0.14531129    2.8343299    7.5145886  0.024271654 
  486400    3.0023487    0.1462502    2.8580414     7.505563  0.023275802 
  486600    2.9726914    0.1425437    2.8861677     7.485519  0.016273646 
  486800    2.9609909   0.15031809    2.9251473    7.5147311  0.015195727 
  487000    2.9940909   0.15572356    2.8868277     7.531442  0.018577523 
  487200    2.9800827   0.15484021    2.9123453    7.5350745  0.018546264 
  487400    2.9917287   0.13959857    2.8891159    7.5140637  0.026349983 
  487600     2.987233    0.1402669    2.8903236    7.5091995  0.021927418 
  487800    2.9491132   0.13941226    2.9578019    7.5186721  0.022493763 
  488000     3.021204   0.14199795      2.86211     7.533648  0.027680892 
  488200    3.0014865   0.15357519    2.8643074    7.5178613  0.035916395 
  488400    2.9912002   0.15235648    2.8651983    7.5021117  0.025533018 
  488600    3.0084039   0.16207132    2.8060808    7.4785018  0.030937553 
  488800    2.9748004   0.16626957    2.8478146    7.4740537  0.017188589 
  489000    3.0452359   0.13872668     2.778981    7.4832775  0.032759626 
  489200    3.0143531   0.13630517    2.8440224    7.4995964  0.031244657 
  489400    2.9600024   0.14077538    2.9414022    7.5199611  0.031945215 
  489600     2.979331   0.15317489    2.9077188    7.5276557  0.024226286 
  489800    3.0017469   0.14287049    2.8854543    7.5286938  0.029754797 
  490000    2.9674742   0.14677301    2.9188926    7.5146513  0.018774919 
  490200    3.0528208   0.15139043    2.8028656    7.5311976  0.029978088 
  490400    3.0142711   0.16186385    2.8625278    7.5435376  0.025664163 
  490600    2.9611436   0.16136902    2.9331359    7.5339995  0.017890835 
  490800    3.0092932   0.14866291    2.8780005    7.5383463  0.027436411 
  491000    2.9370757   0.14010049    3.0015135    7.5450247  0.020900407 
  491200    2.9956832   0.14602249    2.9362145    7.5735151  0.029994841 
  491400    3.0337173   0.14936674     2.896036    7.5937034  0.012541776 
  491600    3.0359663   0.14546195    2.8964003    7.5935347  0.029607347 
  491800    3.0626624   0.14125827     2.855393    7.5883479  0.022353501 
  492000    3.0368105   0.15073905    2.8823237    7.5860009  0.024700481 
  492200    2.9952918   0.14812844    2.9224022    7.5612218  0.027654088 
  492400     2.972138   0.15428049    2.9540355    7.5642938  0.022678955 
  492600    3.0314339   0.14275653    2.9090569    7.5966907  0.028544823 
  492800    3.0065488   0.14699099     2.924144    7.5787033  0.020096591 
  493000    3.0625164   0.13408171    2.8598868    7.5854463  0.029454173 
  493200    2.9864286   0.14545263    2.9578479    7.5807036  0.016239568 
  493400    3.0319411    0.1537497    2.8796048    7.5789923  0.033386724 
  493600    3.0009489   0.14926983    2.9364074    7.5848499  0.018552377 
  493800    3.0681569   0.14638411    2.8418911    7.5882095  0.025482293 
  494000    3.0274205   0.13015746    2.9362756    7.6052933 0.0072265608 
  494200    2.9802282   0.14119034    2.9905235     7.599821  0.028801081 
  494400    2.9768113   0.14446763    2.9851005    7.5925524  0.030439967 
  494600    3.0217261   0.15024034    2.8988806    7.5794438   0.02932825 
  494800    3.0024931   0.15426453    2.8857819    7.5415341  0.023566831 
  495000    3.0330644   0.14887538    2.8800368     7.576234  0.030713374 
  495200    3.0303402    0.1407012    2.9160573     7.599996  0.019483015 
  495400    2.9855814   0.13577759    2.9796582    7.5915687  0.014987382 
  495600    3.0894876   0.14196298    2.8297573    7.6036345  0.044252898 
  495800    3.0464978   0.14591079    2.8926884     7.606061  0.038491618 
  496000    3.0220509   0.15259328    2.9335883    7.6169914   0.03490764 
  496200    3.0300559   0.14611702    2.9201405    7.6090689  0.033714596 
  496400    3.0143948   0.14082291     2.958814    7.6189683  0.015595115 
  496600    3.0344453   0.14173101    2.9447352    7.6358583  0.013064894 
  496800    3.0577918   0.13778406     2.912197    7.6343753  0.018715818 
  497000    3.0281845   0.14658393    2.9418526    7.6284421  0.041026251 
  497200    3.0203155   0.15233003    2.9150402    7.5955782  0.028188541 
  497400    3.0483829   0.14046429    2.8791093    7.5898616  0.041124805 
  497600    3.0556481   0.14268317    2.8767473    7.6006109  0.033190642 
  497800    3.0303508   0.15080985    2.9357565    7.6298197  0.020150872 
  498000    3.0457054   0.15237816    2.9271562    7.6458082  0.027474225 
  498200    3.0232358   0.15194688    2.9632091    7.6477422   0.03608279 
  498400    3.0411474   0.15781646    2.9476534    7.6649101  0.023101681 
  498600     3.059328   0.14888832    2.9222139    7.6577997  0.030847958 
  498800    3.0482705   0.13523777    2.9429049    7.6482623   0.02553662 
  499000    3.0636547   0.13982261    2.9093202    7.6423271   0.02803979 
  499200    3.0307406   0.15382497    2.9499557    7.6476185  0.017293009 
  499400    3.0944849   0.15468232    2.8844223    7.6785111  0.034824346 
  499600    3.0440023   0.14738722    2.9595558    7.6706635  0.015772363 
  499800    3.0300771    0.1426222     2.980757    7.6662223  0.020551359 
  500000    3.0732397   0.14689472    2.9010643    7.6555136  0.013195482 
  500200    3.0349811   0.16069549    2.9548513    7.6657423  0.017254764 
  500400    3.0377548   0.14748276    2.9538313    7.6556679  0.025608477 
  500600     3.050496   0.14583933    2.9347568    7.6540523  0.023294048 
  500800    3.0667992   0.14673139    2.9370913    7.6817214  0.021887394 
  501000    3.0847769   0.13854438    2.8999947    7.6633908  0.028062368 
  501077    3.0541214   0.13932483    2.9430537    7.6612699  0.030066759 
Loop time of 245.215 on 1 procs for 500000 steps with 2000 atoms

Performance: 176172.049 tau/day, 2039.028 timesteps/s
98.8% CPU use with 1 MPI tasks x 1 OpenMP threads

MPI task timing breakdown:
Section |  min time  |  avg time  |  max time  |%varavg| %total
---------------------------------------------------------------
Pair    | 82.792     | 82.792     | 82.792     |   0.0 | 33.76
Bond    | 94.975     | 94.975     | 94.975     |   0.0 | 38.73
Neigh   | 29.63      | 29.63      | 29.63      |   0.0 | 12.08
Comm    | 13.301     | 13.301     | 13.301     |   0.0 |  5.42
Output  | 3.7957     | 3.7957     | 3.7957     |   0.0 |  1.55
Modify  | 15.179     | 15.179     | 15.179     |   0.0 |  6.19
Other   |            | 5.542      |            |       |  2.26

Nlocal:    2000 ave 2000 max 2000 min
Histogram: 1 0 0 0 0 0 0 0 0 0
Nghost:    955 ave 955 max 955 min
Histogram: 1 0 0 0 0 0 0 0 0 0
Neighs:    1565 ave 1565 max 1565 min
Histogram: 1 0 0 0 0 0 0 0 0 0

Total # of neighbors = 1565
Ave neighs/atom = 0.7825
Ave special neighs/atom = 3.6
Neighbor list builds = 33529
Dangerous builds = 4


# ----------------- Run Section -----------------

# The lines above define the system you want to simulate.
# What you do next is up to you.
# Typically a user would minimize and equilibrate
# the system using commands similar to the following:
#  ----   examples   ----
#
#  -- minimize --
# minimize 1.0e-5 1.0e-7 1000 10000
# (Note: Some fixes, for example "shake", interfere with the minimize command,
#        You can use the "unfix" command to disable them before minimization.)
#  -- declare time step for normal MD --
# timestep 1.0
#  -- run at constant pressure (Nose-Hoover)--
# fix   fxnpt all npt temp 300.0 300.0 100.0 iso 1.0 1.0 1000.0 drag 1.0
#  -- ALTERNATELY, run at constant volume (Nose-Hoover) --
# fix   fxnvt all nvt temp 300.0 300.0 500.0 tchain 1
#  -- ALTERNATELY, run at constant volume using Langevin dynamics. --
#  -- (This is good for sparse CG polymers in implicit solvent.)   --
# fix fxLAN all langevin 300.0 300.0 5000 48279
# fix fxNVE all nve  #(<--needed by fix langevin)
#  -- Now, finally run the simulation --
# run   50000
#  ---- (end of examples) ----

Total wall time: 0:04:17
