LAMMPS (7 Aug 2019)
OMP_NUM_THREADS environment is not set. Defaulting to 1 thread. (src/comm.cpp:93)
  using 1 OpenMP thread(s) per MPI task


# ----------------- Init Section -----------------

include "system.in.init"
        units lj
        atom_style angle
        pair_style hybrid dpd 3.0 2.5 583235
        bond_style hybrid harmonic
        angle_style hybrid harmonic
        special_bonds lj 0.0 0.0 0.0


# ----------------- Atom Definition Section -----------------

read_data "system.data"
  orthogonal box = (0 0 0) to (14 14 14)
  1 by 1 by 1 MPI processor grid
  reading atoms ...
  2000 atoms
  scanning bonds ...
  1 = max bonds/atom
  scanning angles ...
  1 = max angles/atom
  reading bonds ...
  1600 bonds
  reading angles ...
  1197 angles
  2 = max # of 1-2 neighbors
  2 = max # of 1-3 neighbors
  2 = max # of 1-4 neighbors
  4 = max # of special neighbors
  special bonds CPU = 0.002506 secs
  read_data CPU = 0.041344 secs

# ----------------- Settings Section -----------------

include "system.in.settings"
        pair_coeff 1 1 dpd 3.0 1.0
        pair_coeff 2 2 dpd 3.0 1.0
        pair_coeff 3 3 dpd 3.0 1.0
        pair_coeff 4 4 dpd 3.0 1.0

pair_coeff 1 2 dpd 8.0 1.0
        pair_coeff 1 3 dpd 0.0 1.0
        pair_coeff 1 4 dpd 0.0 1.0
        pair_coeff 2 3 dpd 0.0 1.0
        pair_coeff 2 4 dpd 0.0 1.0
        pair_coeff 3 4 dpd 8.0 1.0

        bond_coeff 1 harmonic 1000 0.4

        angle_coeff 1 harmonic 20 180
        angle_coeff 2 harmonic 20 180
        angle_coeff 3 harmonic 20 180
        angle_coeff 4 harmonic 20 180
        angle_coeff 5 harmonic 20 180
        angle_coeff 6 harmonic 20 180
        angle_coeff 7 harmonic 20 180
        angle_coeff 8 harmonic 20 180


# ----------------- Run Section -----------------

include "system.in.run"
  dump dxyz all atom 1000 poly.lammpstrj

  variable TK equal 3.0
  variable PBAR equal 1.0
  variable lambda equal ramp(0.0,1.0)
  variable a0 equal 3.0*v_lambda

  comm_modify vel yes
  thermo   200
  minimize 1.0e-6 1.0e-8 10000 100000
WARNING: Using 'neigh_modify every 1 delay 0 check yes' setting during minimization (src/min.cpp:168)
Neighbor list info ...
  update every 1 steps, delay 0 steps, check yes
  max neighbors/atom: 2000, page size: 100000
  master list distance cutoff = 2.8
  ghost atom cutoff = 2.8
  binsize = 1.4, bins = 10 10 10
  1 neighbor lists, perpetual/occasional/extra = 1 0 0
  (1) pair dpd, perpetual
      attributes: half, newton on
      pair build: half/bin/newton
      stencil: half/bin/3d/newton
      bin: standard
Per MPI rank memory allocation (min/avg/max) = 7.268 | 7.268 | 7.268 Mbytes
Step Temp E_pair E_mol TotEng Press 
       0            0    11.305555     566.9113    578.21686   -378.78277 
      64            0     8.900109   0.33553102    9.2356401    10.034392 
Loop time of 1.81147 on 1 procs for 64 steps with 2000 atoms

99.2% CPU use with 1 MPI tasks x 1 OpenMP threads

Minimization stats:
  Stopping criterion = energy tolerance
  Energy initial, next-to-last, final = 
          578.21685963      9.23564298884      9.23564006924
  Force two-norm initial, final = 88177.1 3198.04
  Force max component initial, final = 3161.31 199.037
  Final line search alpha, max atom move = 2.50124e-06 0.00049784
  Iterations, force evaluations = 64 172

MPI task timing breakdown:
Section |  min time  |  avg time  |  max time  |%varavg| %total
---------------------------------------------------------------
Pair    | 1.5034     | 1.5034     | 1.5034     |   0.0 | 82.99
Bond    | 0.06122    | 0.06122    | 0.06122    |   0.0 |  3.38
Neigh   | 0.17659    | 0.17659    | 0.17659    |   0.0 |  9.75
Comm    | 0.037557   | 0.037557   | 0.037557   |   0.0 |  2.07
Output  | 0          | 0          | 0          |   0.0 |  0.00
Modify  | 0          | 0          | 0          |   0.0 |  0.00
Other   |            | 0.03271    |            |       |  1.81

Nlocal:    2000 ave 2000 max 2000 min
Histogram: 1 0 0 0 0 0 0 0 0 0
Nghost:    3432 ave 3432 max 3432 min
Histogram: 1 0 0 0 0 0 0 0 0 0
Neighs:    63060 ave 63060 max 63060 min
Histogram: 1 0 0 0 0 0 0 0 0 0

Total # of neighbors = 63060
Ave neighs/atom = 31.53
Ave special neighs/atom = 3.6
Neighbor list builds = 22
Dangerous builds = 0
  timestep 0.001
  velocity        all create 3.0 49840
  fix      fxnve  all nve
  run 20000
Per MPI rank memory allocation (min/avg/max) = 6.145 | 6.145 | 6.145 Mbytes
Step Temp E_pair E_mol TotEng Press 
      64            3     8.900109   0.33553102     13.73339    11.262238 
     200    2.3519748    8.8330698    1.9305865    14.289854    11.316488 
     400    2.6127315    8.6162917    2.2606638    14.794093    8.6919384 
     600    2.7865518    8.5505866     2.386751    15.115075    11.010934 
     800    2.8628629    8.4265956    2.5886684    15.307411    10.823802 
    1000     2.890189     8.482828    2.5694569    15.385401    11.505965 
    1200    2.8963782     8.476364     2.726331     15.54509    11.393155 
    1400    2.9655931    8.4301494     2.926806    15.803121    10.966749 
    1600    2.9446153    8.4196914    2.9556505    15.790056    10.936637 
    1800    2.9432081    8.4030026    3.0183562    15.833964    11.911425 
    2000    2.9829016    8.4136836    2.9447129    15.830512    9.8172854 
    2200    2.9765899    8.4566909    2.8686764     15.78802    10.789683 
    2400    2.9076508    8.4032518    2.9715005    15.734048    11.645188 
    2600    2.8611681    8.3942834    3.0309166    15.714806    12.248579 
    2800    2.9128728    8.4340439    2.9673425    15.768511    12.032508 
    3000     2.942419     8.394814    3.0243055    15.830541    9.7149022 
    3200    2.9724901    8.4261176    2.9584536    15.841077    12.088386 
    3400    3.0713382    8.3559769    2.9327798    15.893461    11.418593 
    3600    3.0216131    8.4813608    2.9380516    15.949566    11.284729 
    3800     3.149245    8.4148547     2.914395    16.050755    11.370813 
    4000    3.0858233    8.3850527     2.923409    15.934882    11.504728 
    4200    2.9730804    8.4339901    2.9311765    15.822557    10.012535 
    4400    2.9902795    8.4030587    2.8950792    15.781314    12.293889 
    4600    2.9394884    8.4332891    3.0218316    15.862149    12.450306 
    4800    2.9966837     8.387323    3.0102413    15.890342    11.621146 
    5000    2.9969041    8.4097437    3.0432883     15.94614    11.665179 
    5200    3.0207426     8.415218    2.9885728    15.932639    11.410013 
    5400    2.9988783    8.4012695    2.9642035    15.861541    10.620252 
    5600    3.0085948    8.4438564    3.0322408    15.986733    11.081557 
    5800    3.0794375     8.452036    2.9152979    15.984181    11.413444 
    6000    3.0039454    8.4265785    2.9546485    15.884892    10.828086 
    6200    3.0089283    8.3956051    2.9268495     15.83359    11.835453 
    6400    3.0245678    8.4369764    2.9266822    15.898242    10.769301 
    6600    2.9879289    8.3970387    3.0018208    15.878512    11.127603 
    6800    3.0348281    8.4244059    3.0432698    16.017642    10.552668 
    7000    3.0224815    8.4347732    2.9428017     15.90903    10.938092 
    7200    3.0177111    8.4063996    3.0162048    15.946908    10.744129 
    7400    2.9985077    8.4275776    3.1048203     16.02791    11.069494 
    7600    3.1246244    8.3438506    3.0196565      16.0481    10.632668 
    7800    3.0932899    8.3699187    2.9675412    15.975075    10.074856 
    8000     2.951673    8.4435104    3.0864509    15.955257    9.3672324 
    8200    3.0632735    8.3790408    3.0251923    15.996846    10.795981 
    8400    3.0315685    8.4437855    3.0417102    16.030575    9.8841521 
    8600    3.0892557    8.3984488    3.0713026    16.101318    11.379388 
    8800    3.0270201    8.4306063    3.0952302    16.064096    10.372025 
    9000    3.0033934    8.3734851    3.0445211    15.920844    11.047912 
    9200    2.9668251    8.4210681     3.063314    15.932395    12.166824 
    9400    3.0811344     8.417118    3.0050637    16.041572    10.669534 
    9600    3.0450456    8.4296968    2.9731493    15.968131    10.496083 
    9800    3.0433096    8.3446402    3.0102154    15.917538    11.743602 
   10000    2.9435721    8.3960121    3.0844672     15.89363    10.959556 
   10200    2.9585077    8.3530855    3.0132124    15.801841    10.729659 
   10400    2.9960172    8.3457813    2.9532334    15.790794    10.694856 
   10600    2.9151513    8.4192126    2.9774073    15.767161     10.47534 
   10800    3.0177197    8.4127732    2.9456665    15.882756    11.832945 
   11000    3.0799313    8.3835299    2.9713881    15.972505    11.233127 
   11200    2.9721296    8.4326083    3.0916096    15.980183    11.091378 
   11400    3.0221877    8.4036187    3.0050725    15.939706    11.421868 
   11600     3.018579    8.3897037    3.0542191    15.969527    10.869773 
   11800    2.9656748    8.3819434    3.0725488     15.90078    12.579103 
   12000     2.977433    8.3985554    3.0442926    15.906764     10.91979 
   12200    3.0189368    8.3473717    3.0782632    15.951776     10.34691 
   12400    3.0873628    8.3733615    3.0253097      16.0274    11.778243 
   12600    3.0827751    8.4641475    2.9718334    16.057832    9.7152213 
   12800    3.0766318    8.3908316     2.988544    15.992016    9.9067326 
   13000    3.0463693    8.4112427    2.9726117    15.951124    12.429055 
   13200    3.0299539    8.3620579    2.9490121    15.853728    10.192425 
   13400    2.9238196    8.4154112    3.0445051    15.843453    9.3751344 
   13600    2.9097575    8.4254216    3.0754076    15.863283    11.145606 
   13800     3.011792    8.4144162    2.9381923    15.868038    10.623899 
   14000    2.9804412    8.4376356    2.9705638    15.876626    10.363407 
   14200    2.9459358    8.3812428    2.9713185    15.769256    11.250608 
   14400    2.9266422    8.4082282    3.0802249    15.876221    9.3110468 
   14600    3.0497329     8.415183    2.9364014    15.923897    10.734409 
   14800      2.97431    8.3884271    3.0042193    15.851881    10.731563 
   15000    2.9223206    8.3651589    2.9375639    15.684012    10.606008 
   15200    3.0098275    8.3823079    2.9071999    15.801992    9.4831336 
   15400    2.9112312    8.4049863    2.9031011    15.672751    11.137422 
   15600    2.8941323    8.4273335    2.9587338    15.725095    11.583659 
   15800     3.012474    8.3897395     2.879092    15.785283    11.219349 
   16000    2.9830276    8.3966905    2.9752844    15.844279    11.122308 
   16200    3.0009431     8.386983     2.997391    15.883538    11.382197 
   16400    2.9156207     8.350225    3.0141871    15.735657     10.15383 
   16600    2.9419371    8.3660408    2.9971554    15.773895    9.4981047 
   16800    2.9893856    8.3868003    2.9861789    15.854816    9.7247882 
   17000     2.936292     8.364277    2.9631427    15.729656    12.123868 
   17200    2.9558648    8.3723999    2.9328582    15.736838    10.504019 
   17400    3.0219433     8.418724    2.8909915    15.840364    10.656136 
   17600     3.002559    8.4073697    2.9923047    15.901261    10.554751 
   17800    3.0855425    8.3575223    2.9295026    15.913025     11.50843 
   18000    3.0439193    8.3539036    3.0527762    15.970276    10.009647 
   18200    3.0318741     8.334791    2.8931607    15.773489    12.580134 
   18400    2.9636827    8.4258064    3.0200732    15.889181    10.301884 
   18600    2.9325398    8.3685894    3.0041725    15.769372    9.5274043 
   18800    3.0164431    8.4118469    2.8972624    15.831512    11.420828 
   19000    2.9890926    8.3672373     2.929804    15.778438    11.653309 
   19200    2.9668946    8.4379987    3.0124752    15.898591    10.623917 
   19400    3.0088264     8.394742    2.9050446     15.81077     10.51704 
   19600    3.0008499    8.3585542    2.9932889    15.850867    11.054562 
   19800     3.057253    8.4457751    2.9938762    16.023238    10.242212 
   20000    3.0442477    8.3813127    3.0704489     16.01585    10.994371 
   20064     3.122654    8.3411794    3.0284132    16.051232    11.456519 
Loop time of 200.3 on 1 procs for 20000 steps with 2000 atoms

Performance: 8627.050 tau/day, 99.850 timesteps/s
94.4% CPU use with 1 MPI tasks x 1 OpenMP threads

MPI task timing breakdown:
Section |  min time  |  avg time  |  max time  |%varavg| %total
---------------------------------------------------------------
Pair    | 174.51     | 174.51     | 174.51     |   0.0 | 87.12
Bond    | 6.8204     | 6.8204     | 6.8204     |   0.0 |  3.41
Neigh   | 11.97      | 11.97      | 11.97      |   0.0 |  5.98
Comm    | 4.3405     | 4.3405     | 4.3405     |   0.0 |  2.17
Output  | 0.11219    | 0.11219    | 0.11219    |   0.0 |  0.06
Modify  | 1.9081     | 1.9081     | 1.9081     |   0.0 |  0.95
Other   |            | 0.6416     |            |       |  0.32

Nlocal:    2000 ave 2000 max 2000 min
Histogram: 1 0 0 0 0 0 0 0 0 0
Nghost:    3451 ave 3451 max 3451 min
Histogram: 1 0 0 0 0 0 0 0 0 0
Neighs:    64056 ave 64056 max 64056 min
Histogram: 1 0 0 0 0 0 0 0 0 0

Total # of neighbors = 64056
Ave neighs/atom = 32.028
Ave special neighs/atom = 3.6
Neighbor list builds = 1330
Dangerous builds = 3

  reset_timestep 0

  fix ADAPT all adapt/fep 10000     pair dpd a0 1*2 3 v_a0     pair dpd a0 1*2 4 v_a0     after yes

  fix PRINT all print 10000 "adapt lambda = ${lambda} a0 = ${a0}"
  variable dlambda equal 0.02
  variable da0 equal 3.0*v_dlambda

  compute FEP all fep 3.0     pair dpd a0 1*2 3 v_da0     pair dpd a0 1*2 4 v_da0

  fix FEP all ave/time 5 2000 10000 c_FEP[1] c_FEP[2] file fep01.lmp

  run   500000
FEP settings ...
  temperature = 3.000000
  tail no
  dpd a0 1-2 3-3
  dpd a0 1-2 4-4
Per MPI rank memory allocation (min/avg/max) = 6.146 | 6.146 | 6.146 Mbytes
Step Temp E_pair E_mol TotEng Press 
       0     3.122654    8.3411794    3.0284132    16.051232     11.06766 
     200    3.0115915    8.4510032    3.0545036    16.020635    11.126297 
     400    3.0533345    8.3762027    2.9691508    15.923065    10.790921 
     600    2.9895175    8.3847966    3.0766848    15.943516    10.817983 
     800    3.0356046    8.3580401     3.100874    16.010044    10.282506 
    1000    3.0194573    8.4119125    3.1655777    16.104412     10.34201 
    1200    3.0425622    8.4137961    3.2593488    16.234706    10.156479 
    1400    3.0924306    8.4274889     3.124868    16.188683    9.6200123 
    1600    3.0458632    8.3896174    3.1032339    16.059362    10.865416 
    1800    3.0831857    8.3830099    3.0376793    16.043155    10.771823 
    2000    2.9829958    8.4395326    3.1026671    16.014456    12.188135 
    2200    3.0185794     8.381966    2.9803131    15.887884    12.785573 
    2400     2.970672    8.3862005    2.9828009    15.822781    9.8339544 
    2600    3.0179521    8.3506775    2.9554036    15.830746    12.419104 
    2800     2.918094    8.3660215    2.9537722    15.694746    10.567246 
    3000     2.955298    8.3777638     2.881664    15.690158    10.894986 
    3200    2.9354273    8.4027696    2.8685282    15.672237    10.500469 
    3400    2.9997451    8.3963221    2.9143495    15.808039    10.794725 
    3600    3.0196984    8.4616633    2.9203822    15.909328    11.644902 
    3800    2.9806022    8.3835439    3.0069358    15.859148    10.721487 
    4000    2.9794922    8.4122316    3.0501531    15.929388    10.105791 
    4200    2.9763683    8.3383164    3.0171279    15.817764    11.298087 
    4400    2.9781735    8.3660784    2.8915675    15.722672    11.915257 
    4600    2.9563317    8.4164038    2.9255674    15.774252    10.813472 
    4800    3.0421973     8.384417    2.9328356    15.878267    9.9998286 
    5000    2.9902012    8.4223013    2.9645584    15.869919    11.116753 
    5200      2.98641    8.3569064    2.9302833    15.764565    10.023664 
    5400    2.9043502    8.3420531    3.0647481    15.761148    11.259235 
    5600    2.9952309    8.3470242    2.9636235    15.801248    11.163159 
    5800    2.9944664    8.3746456    2.9166462    15.780746    10.643667 
    6000     2.969148     8.390938    2.9821447    15.824578    12.027156 
    6200    3.0628901    8.3699247    2.9978259    15.959789    10.649519 
    6400    2.9714662    8.4070998    3.0935969    15.955667     9.920127 
    6600    2.9922403    8.3971959    3.0623136    15.945626    9.7599634 
    6800     2.990581    8.3945421    2.9023946    15.780565    9.1199818 
    7000    3.0980936    8.3614799    2.9693599    15.975657    10.731566 
    7200    3.0505109    8.4218521    2.9527283    15.948059    10.088831 
    7400    3.0610654     8.413555    2.9126861    15.915543    10.332472 
    7600     2.987814    8.4460712    2.9454413    15.870993    10.292655 
    7800    3.0158606    8.4367145    2.8991738    15.857417    9.4863297 
    8000    3.0075322    8.4073452    2.9849783    15.901366    10.692694 
    8200    2.9579684    8.3812894     3.009728    15.825752    11.645739 
    8400    2.9467342    8.3883453    3.0322684    15.838505    11.806169 
    8600    3.0564434    8.4003251    2.9348919     15.91759    10.922119 
    8800    3.0045635    8.3931438    2.9444148     15.84215    10.211898 
    9000    3.0171682    8.4502321     2.910528     15.88425    11.067663 
    9200    3.0012049    8.4168898    2.9438258    15.860272    9.8009875 
    9400     2.984161    8.4720946    2.9370471    15.883145    10.268476 
    9600    3.0260344    8.4044203     2.965686    15.906888      9.62199 
    9800    3.0155475    8.4024648    2.9543833    15.877908    9.6769088 
adapt lambda = 0.02 a0 = 0.06
   10000    3.0239811    8.3778077    2.9268653    15.838377    11.310904 
   10200    2.9711284    8.3943271    3.0468696    15.895661    10.608655 
   10400    3.0105757    8.3784006     2.963496    15.855502    10.313836 
   10600    2.9907558    8.3396239    2.9985858      15.8221    12.019429 
   10800    2.9487362     8.426855    3.0389496    15.886697     11.85462 
   11000    3.0490158    8.4353713    2.9273888    15.933997    11.347465 
   11200    3.0678468    8.3835568    3.0139742       15.997     10.50263 
   11400    3.0350412    8.4745174    2.9856731    16.010476    10.746475 
   11600    3.0470264    8.4781416    2.9621135    16.008509    11.004036 
   11800    2.9933071    8.4254637    2.8883082    15.801488     9.800762 
   12000    3.0222493    8.4041596    2.9330465    15.868313    10.378059 
   12200    3.0202696    8.3760235    3.0769994    15.981162    9.5501049 
   12400    3.0887982    8.3505669    3.0043647    15.985812    10.705493 
   12600    2.9968364    8.3351391       3.0677    15.895846    10.985155 
   12800    2.9778898     8.395025    3.0704393    15.930066     11.05105 
   13000    3.0101942    8.3407726    3.0483605    15.902167    10.402015 
   13200     2.996367    8.3907447    3.0121002    15.895148    12.817174 
   13400    3.0981516    8.3457869    2.9577148    15.948405    9.6140595 
   13600    3.0054938    8.3526082    3.0700147     15.92861    11.742774 
   13800    3.0483155    8.3585978    2.9903972    15.919182    10.999379 
   14000    2.9287518    8.3326217    3.0992162    15.822769    11.526585 
   14200     2.917266    8.3852461    3.1630278    15.921985     9.333817 
   14400    3.0412451    8.4136474    2.9994406    15.972675    10.080068 
   14600    2.9493302    8.4235871    3.0472364    15.892607    11.168706 
   14800    2.9132002    8.4435436    2.9483091    15.759468    10.959244 
   15000    2.9169627    8.4640432    2.9084191    15.745719    9.0694209 
   15200    2.9289964    8.4417019    2.9658192    15.798819    10.796703 
   15400    2.9506886    8.4647705    2.9604732    15.849063     10.74507 
   15600    3.0052529    8.4128507    2.9097883    15.828264    10.304372 
   15800    2.9685624    8.4313485    2.9596832    15.841649    10.893937 
   16000    3.0417713    8.4013431    2.9813366    15.943055     12.62892 
   16200    3.0322925    8.4025072    3.0380852    15.986757    10.902154 
   16400    3.0368058    8.3626549    2.9514288    15.867015    10.956761 
   16600    2.9762433    8.3392321    3.0095285    15.810893    10.202131 
   16800    2.9486772    8.3680607     3.041072    15.829937    11.104469 
   17000    2.9271101    8.3810868    2.8609543    15.630511    11.633956 
   17200    2.9646178    8.3452346    2.9418198    15.731758    12.341711 
   17400    2.9078614     8.356848    2.9849154    15.701375     11.08793 
   17600    2.9124361    8.3564573    2.8834213    15.606348    10.381401 
   17800    2.9121121    8.3888676    2.8924793    15.647331    11.030794 
   18000    2.8596274      8.35052    3.0227051    15.660521    11.668351 
   18200    2.9366591    8.2970509    2.9994148    15.699252    11.021895 
   18400    2.8964632    8.3547932    2.9894229    15.686739    10.852181 
   18600    2.9304081    8.3384741    3.0184565    15.750345     11.07322 
   18800    3.0226036     8.357642    2.9178423    15.807123    10.240921 
   19000    2.9154798    8.4512229    2.9898518    15.812108    10.595192 
   19200    2.9891607    8.3532584    2.9746858    15.809443    9.7815386 
   19400    2.9197475    8.3859153    3.0101144    15.773461     10.71849 
   19600    2.9094487    8.3784073    2.9700129    15.710411    10.645979 
   19800    2.9632668    8.3228551    3.0224354    15.787968     11.43178 
adapt lambda = 0.04 a0 = 0.12
   20000    2.9460856    8.3724932    2.8983026    15.687715    11.091164 
   20200    2.9559175    8.3533243    2.9796396    15.764623    11.944412 
   20400    2.8866155    8.3833308    3.0091875    15.720277    11.246935 
   20600    2.9946038    8.3873304    2.9372485    15.814239    12.022797 
   20800    2.9574304     8.384045    2.9548942    15.772867    11.964618 
   21000    2.8835509    8.4448339    2.9449031    15.712901    10.761144 
   21200    2.9389357    8.3478533    2.9234052    15.677458     11.29658 
   21400    2.9590005    8.3490807    2.9653632    15.750725    11.307652 
   21600    2.9331654    8.3726668    2.9988708    15.769086    10.988639 
   21800    2.9585601     8.415243    2.9641023    15.814966    10.240508 
   22000    2.9833933    8.3643517    2.9294872    15.766691    10.326501 
   22200    2.9570688    8.3781073    2.9585247    15.770017    10.637136 
   22400    3.0570498    8.3725593     2.992601    15.948442    10.666232 
   22600      3.15384     8.353376    2.9047656    15.986536    12.000838 
   22800    2.9642819    8.4614568    2.9920228    15.897679    9.9115674 
   23000    3.0306639    8.4186778    2.9123362    15.874737    10.982289 
   23200    3.0246812    8.4180794    2.8940336    15.846866    9.7978161 
   23400    3.0190372    8.3703915    2.8723048    15.768988    11.134507 
   23600    3.0583759     8.367188     2.937791    15.890249    10.248872 
   23800    3.0469702     8.468819    2.8673228    15.904312     11.51144 
   24000    3.0320079    8.4404786    3.0342542    16.020471    11.456295 
   24200    3.0352493    8.4360801     3.080379    16.067057     9.883442 
   24400    3.1211656    8.3623885    2.9852838     16.02708     10.76638 
   24600    3.0278597     8.422946    3.0489647    16.011429    11.328217 
   24800    3.0245857     8.414317    3.0223354    15.971263    10.666135 
   25000    2.9840052    8.3820803    3.0434476    15.899298    11.399383 
   25200    2.9534565     8.368936    3.1614318    15.958337    10.643298 
   25400    3.0390052    8.3080531    3.1268724    15.991154    10.831938 
   25600    2.9779131    8.3512512    3.0846523     15.90054    11.101763 
   25800    3.0326011    8.3452111    3.0434967    15.935335    10.754748 
   26000    2.9881124    8.4117527    2.9660361    15.857716    10.937739 
   26200    3.0250385    8.3905825    2.9943346    15.920206    10.596175 
   26400    2.9988414    8.4044895    2.9384337    15.838936    10.374463 
   26600    2.9995011    8.3350763    2.9514908    15.783569    10.273303 
   26800    3.0304648    8.4075025    3.0517344    16.002661    10.474425 
   27000     3.106964    8.3672293    3.0264589    16.051804    10.903602 
   27200    3.0917591    8.3802856    3.0450334    16.060639    9.2731557 
   27400    3.0413378    8.4203354    3.0845393      16.0646    10.268954 
   27600    3.1193684    8.4012765    3.1138501     16.19184    11.565181 
   27800    3.0392625    8.3568849    3.1447652    16.058264    12.268838 
   28000     3.030093    8.4245659     3.067844    16.035277    11.432303 
   28200    3.1823339    8.3530812    3.0780823    16.202278    9.4679859 
   28400    3.0498083    8.3648492    3.1239444    16.061219    10.395719 
   28600    3.0553936    8.3532475    3.0895744    16.023621     11.60073 
   28800    3.0557867     8.375404    3.1081074      16.0649     10.70112 
   29000    3.0825785    8.3394478    3.1254264     16.08643    10.627505 
   29200    3.0461794     8.350689    3.1151581    16.032832    11.719222 
   29400    3.0418807    8.4136263    2.9469717    15.921138    10.630735 
   29600    2.9367005    8.3675485     3.033996    15.804393     11.34108 
   29800    3.0232562    8.3594304    3.0197006    15.911748    10.738216 
adapt lambda = 0.06 a0 = 0.18
   30000    2.9655317     8.392312    3.1515839    15.989969    10.198001 
   30200    3.0512087      8.38763    3.0015716    15.963726    11.057387 
   30400    3.0953269    8.3913435    2.9771208    16.009133    9.2715635 
   30600    3.0733686    8.3727094    3.0147132    15.995171    10.937146 
   30800    2.9679972    8.3899534    3.1417182    15.981441    10.016129 
   31000    3.0492574    8.3704315    3.0561138    15.998145    11.515443 
   31200    3.0365942    8.3851298    3.0361508    15.973894    11.635299 
   31400    2.9992777    8.3955884     3.057167    15.949423     12.67428 
   31600     3.046085    8.4000597    3.0491254    16.016028    10.521013 
   31800    3.0505666    8.3932213    3.0411059    16.007889    10.710763 
   32000    2.9777938      8.38583    3.1064202    15.956708    11.753733 
   32200     2.951862    8.3693219    3.0917908    15.886692    9.1499919 
   32400    2.9611041    8.3916472    3.0033055    15.834388    11.082273 
   32600     2.919267     8.371564    3.0575965    15.805872    10.957986 
   32800    2.9535414    8.4082827    3.0219417    15.858321    10.591341 
   33000    2.9863169    8.4290813    3.0386315    15.944948    10.140568 
   33200     2.971517    8.5016703     3.057633     16.01435     10.15809 
   33400    2.9832955    8.5228179    2.8933366     15.88886    12.845727 
   33600    3.0063981    8.4414836     3.007076    15.955902    10.507233 
   33800    2.9532585    8.4262475    3.0534048    15.907325    10.756785 
   34000     3.024565    8.4266255    2.9924774    15.953682    10.488067 
   34200    3.0026084    8.4186578    3.0205665    15.940885    10.783247 
   34400    2.9499763    8.4048237    2.9451894    15.772765    11.838544 
   34600    2.9970705    8.4229433    2.9698945    15.886196    10.837061 
   34800    2.9608005    8.4368097     3.009656    15.885446    11.100259 
   35000    3.0931633    8.3987007    2.9594614    15.995587    10.541721 
   35200    3.0382433    8.4106187    2.9861597    15.951865    10.546045 
   35400    2.9624117    8.4090631    2.9314813     15.78194    9.5526759 
   35600    2.9126131    8.4315628    2.9283935    15.726692    10.797689 
   35800     2.957396    8.3780311    2.9499177    15.761825     10.96371 
   36000    2.8998639    8.4043768    3.0070644    15.759062    12.362543 
   36200    2.9926345     8.381877    3.0184896    15.887074    11.531926 
   36400    2.8991647    8.3676279     2.984785    15.698986     11.03828 
   36600    2.9628211    8.3439587     2.988042     15.77401    12.048118 
   36800    2.9754448    8.3955944    2.9424148    15.798945    11.136766 
   37000    2.9297588    8.4812293    3.0341166    15.907787    10.377638 
   37200    3.0203843    8.4234304    2.9833581      15.9351    11.431198 
   37400    3.0306886    8.3953367    3.0518639    15.990961    10.031225 
   37600     3.060688    8.4221506    3.0459676    16.056855    10.427639 
   37800    3.0556812    8.3983258    2.9982472    15.977803    11.758911 
   38000     2.987675    8.3524712    3.0086278    15.840371    10.375855 
   38200    3.0540945    8.3428245    3.0168146     15.93849    11.327919 
   38400    3.0129665    8.3488352    2.9206602    15.786685    11.433435 
   38600    2.9632787    8.3921706    3.0019332    15.836799    8.9708213 
   38800     2.919396    8.4101297    2.9767288    15.763763    12.233814 
   39000    2.9455887    8.4078354     2.932819    15.756828    10.519433 
   39200    2.9470056    8.4320189    2.9326737    15.782991    12.308476 
   39400    3.0032471    8.4409464    2.9369782    15.880543    10.391716 
   39600    3.0099627    8.3968928    2.9228032    15.832383    11.361559 
   39800    3.0395022    8.3413782    2.8808213    15.779173    10.168497 
adapt lambda = 0.08 a0 = 0.24
   40000    2.9597498    8.3689716    2.8844288    15.690805    10.394419 
   40200     2.988292    8.3792148    2.8054075    15.664819    11.939711 
   40400     2.951927    8.3955758    2.8659062    15.687159    11.613709 
   40600    2.9682923    8.3630436    2.9294254    15.742681    11.436587 
   40800    2.9928759    8.3676955    3.0157267    15.870491     10.15833 
   41000    2.9964361    8.4156194     2.990574      15.8986    10.120985 
   41200    3.0103745    8.3972286    2.9474443    15.857977    11.312153 
   41400    3.0231792    8.4063095    2.9698153    15.908626    11.354008 
   41600    3.0442411    8.3721933    3.0206258    15.956898    11.744367 
   41800    3.0147019    8.3696793    2.9881981    15.877669    11.199208 
   42000    2.9814464    8.4076655    3.1025104    15.980109    10.612652 
   42200    2.9947361    8.3977818    2.9633162    15.850956    10.532394 
   42400    2.9699858    8.3742231    3.0851707    15.912145     11.46038 
   42600    3.0071734    8.3976614    2.9581076    15.864274    11.548419 
   42800    2.9478987    8.4014923    2.9317879    15.752917    11.961945 
   43000    2.9144726     8.432633    2.9504732    15.752629    12.109151 
   43200    3.0052081    8.3973246    2.9418025    15.844685    10.687854 
   43400    2.9645455    8.4056186    2.9372302    15.787444    11.382279 
   43600    2.9289836    8.4149962    2.8207059    15.626981    9.9714212 
   43800     2.948326    8.3846739    2.8873518    15.692303    11.359531 
   44000    2.9085438    8.3733183    2.9179378     15.65189    11.497405 
   44200    2.9062959    8.3486161    3.0127544    15.718635    10.919151 
   44400    2.9696996    8.3566834    2.9441453    15.753151    10.742895 
   44600    2.9537826    8.3881745    3.0519152    15.868548     11.10847 
   44800     2.994697    8.4265319    3.0142271    15.930558    10.602968 
   45000     3.013306    8.3895989    3.0433616    15.950659    10.788953 
   45200    2.9891723    8.3603426    2.9658643    15.807723    11.755711 
   45400     2.953479    8.4616824    3.0698497    15.959536    10.205226 
   45600    3.0521483    8.3573155    3.0148719    15.948121    10.902624 
   45800     3.019863    8.3901829    3.0098042    15.927517    11.402415 
   46000    3.0122131    8.4038948    3.0122998    15.932255    12.367985 
   46200    3.0708888    8.3894159    2.9095047    15.902951    9.7815034 
   46400    2.9432881    8.4319645    2.8973855    15.742075    11.348218 
   46600    2.9350841    8.4399861    2.8820674    15.722478    9.8818919 
   46800    2.9309367     8.424729    2.9114753    15.730411    10.680677 
   47000    2.8822413    8.3606075     3.030973    15.712781    10.518936 
   47200    3.0089508    8.4356176    2.8737059    15.820493    10.570626 
   47400    3.0195149    8.3792332    2.9522016    15.858442    10.137335 
   47600    3.0760408    8.3994603    3.0494245    16.060639     10.89439 
   47800    3.0900583    8.4216179    3.0943194    16.148707    10.771416 
   48000    3.1801264    8.3698201    3.0428998    16.180524    9.7826768 
   48200    3.0931813    8.4009784    3.1123476    16.150778    10.010242 
   48400    3.1012102    8.4173249    3.0399895    16.106804    11.063308 
   48600    3.0704185    8.4012273    3.0167755    16.021328    10.393997 
   48800    3.0343426    8.3805128    3.0408931    15.970644    10.652115 
   49000    2.9911197    8.3739351    3.0349699    15.893341    9.8686839 
   49200    3.0705523    8.3874358    3.0729816    16.063943    11.605709 
   49400    3.0231816    8.4119233    2.9818392    15.926268    10.664249 
   49600    2.9496035    8.4096479    3.0615389     15.89338    10.963798 
   49800    2.9966314    8.4093092    3.0003702    15.902379    10.422688 
adapt lambda = 0.1 a0 = 0.3
   50000    3.1077767     8.398607    2.8830667    15.941008    12.562525 
   50200    3.0600448    8.4271306    2.9925425    16.007445    10.682368 
   50400    3.0241708    8.4418156    2.9472235    15.923027    11.963382 
   50600    3.0248697    8.4449079    2.9356124    15.915556    10.768412 
   50800    2.9989209    8.4331393    2.8796436    15.808915    11.019656 
   51000    2.9755568    8.4101849    3.0126133    15.883902    10.421418 
   51200    3.0495392    8.4475688    2.9000488    15.919639    10.805144 
   51400    2.8594543    8.4154558    3.1159204    15.818413    11.003019 
   51600    2.9514704    8.3708697    2.9821273    15.777989    10.756953 
   51800    2.9444436    8.3962765    2.9592225    15.769956    10.156742 
   52000      2.96013    8.4194437    2.9394987    15.796917    11.203863 
   52200    2.9921523    8.4229624     2.982362    15.891309    9.9779631 
   52400    3.0365737    8.4402031    2.9674414    15.960228    9.6752901 
   52600    2.9641286    8.3699746    3.0939471    15.907892    10.435181 
   52800    3.0482889    8.3234224    3.0236125    15.917182    9.5732765 
   53000      2.89455    8.3929399    3.0375658     15.77016    10.195011 
   53200    2.9569808    8.3628161    3.0229599    15.819029    11.513835 
   53400    2.9836501    8.3389107    3.0569324    15.869081    10.825709 
   53600     2.989225    8.3844423     3.130144    15.996182    10.590604 
   53800    2.9316416    8.4646728    3.0412257    15.901162    9.9236775 
   54000    2.9946744    8.4488029    3.0848608    16.023429    11.670187 
   54200    2.8925316    8.4562171    3.0596433    15.852488    11.901343 
   54400    2.9777388    8.3937916    3.0135857    15.871752    10.500706 
   54600    3.0513079    8.3763518    2.9950105    15.946036    11.339749 
   54800     2.985909    8.4006467    3.1124042    15.989675    11.635348 
   55000    2.9440222    8.3997419    3.1167499    15.930317     11.14778 
   55200    3.0911876    8.4411662    3.0376849    16.113314    10.791734 
   55400    2.9741098    8.4139334    3.0781822     15.95105    11.049252 
   55600     2.939019    8.3828344    3.0024739    15.791633    10.988004 
   55800    3.0016741    8.3603049    3.0643517    15.924916    10.549346 
   56000    2.9994157     8.385199    3.0859873     15.96806    10.791893 
   56200    3.0513226    8.3855496    3.1096125    16.069858    10.705642 
   56400    2.9967352    8.4245392     3.100816    16.018211    10.609512 
   56600    3.0362521    8.4728023    3.0782117    16.103115    11.523497 
   56800    3.0516587    8.3997646    2.9985296    15.973494    12.529738 
   57000    3.0122818    8.3751122    3.0392023    15.930478     11.41226 
   57200    3.0347758    8.3949277    2.9803444     15.92516    10.072972 
   57400    2.9261086    8.4609125    2.9563813    15.804262     11.25983 
   57600    2.9277414    8.3763894    2.9868675    15.752673    9.4602706 
   57800    2.9286502    8.3546922    3.0833719    15.828843    10.597221 
   58000    3.0224172    8.3291592    3.0236263    15.884144    10.345522 
   58200    2.9316348    8.3994838    3.1006264    15.895364    10.542888 
   58400    2.9918036    8.3926909    3.0619757    15.940128    10.038634 
   58600    3.0449732    8.4146482     2.955908    15.935732     10.81551 
   58800    3.0528752    8.4442548    2.9982354    16.019513    10.379475 
   59000    3.1130367    8.4337932    2.9888455    16.089859    9.6297107 
   59200     3.051943    8.4070694    3.0260559    16.008751    13.350997 
   59400    3.0235527    8.3887547    2.9521893    15.874005    10.902487 
   59600    2.9405302    8.4065754    2.9771276    15.792293    12.172249 
   59800    2.9621303    8.3471885    2.9048361    15.692998    10.292728 
adapt lambda = 0.12 a0 = 0.36
   60000    2.9016729    8.3579997    3.0075209    15.715854     10.74628 
   60200    2.8684016    8.4126109    3.0032193    15.716281    12.033459 
   60400    2.9135656     8.433267    3.0286902     15.83012    11.246979 
   60600    2.9195504     8.380711    3.0757959    15.833643    9.2428507 
   60800    2.8437192    8.4110006      3.00674    15.681187    11.846167 
   61000    2.9187602    8.3747244    2.8738574    15.624533    11.968562 
   61200    2.8996102    8.3618311    2.8979258    15.606997    11.467777 
   61400    2.9544989     8.358687    2.9236089    15.711828    12.424904 
   61600    2.9112891    8.3430534    2.9423197    15.650123    10.228509 
   61800    2.9636206    8.3678549    3.0133055    15.824368    9.8682405 
   62000    2.9715747    8.3698097    3.0052805    15.830224    9.9882185 
   62200    3.0244831    8.4174659     2.961969    15.913891    12.914677 
   62400     3.015799    8.3581503    2.9345385    15.814126    10.677194 
   62600    3.0154878    8.3495268    3.0281405    15.898637    11.165344 
   62800    3.0341906    8.3787067    3.0263099    15.954027    11.658341 
   63000    3.0515406    8.3889922    3.0464126    16.010427    10.759665 
   63200     2.994082    8.3878265    2.9846681    15.861372    10.575168 
   63400    2.9807199    8.3915184    2.9308397    15.791202    11.757969 
   63600    2.9756939    8.4006085     2.924274    15.786192    11.079651 
   63800    2.9349395    8.3960733    2.9512928    15.747574    9.7938828 
   64000    2.9495194    8.4022213    2.9363405    15.760629    11.142618 
   64200    2.9121548    8.3775943    2.8912271    15.634869    10.578134 
   64400    2.8716422    8.4202567    2.9048481    15.630414    9.2229826 
   64600    2.8801953    8.3743314    2.9765203    15.668985    10.384092 
   64800    2.8845883    8.3751467    2.9376473    15.637513    11.428668 
   65000     2.984725    8.4155629    2.8913869    15.781799     11.40384 
   65200    2.8947922    8.3758207    2.9403913    15.656229    10.245797 
   65400    2.9275009    8.3766419    2.9222889    15.687987    10.589225 
   65600    2.9332993    8.3700864    3.0312395    15.799075    12.278099 
   65800    2.9294053    8.4095779    3.0464581    15.847947    11.039114 
   66000    2.9651449     8.418812     3.060394    15.924699    11.591087 
   66200    2.9977914    8.3501438    2.9870414    15.831624     11.90043 
   66400    3.0351766    8.3505736    2.9791536    15.880216    10.701831 
   66600    2.9884431      8.39158    3.0022697    15.874273    11.010108 
   66800    3.0189624    8.3223554    2.9277341    15.776269     10.11358 
   67000    2.9327156    8.4131667    2.9586495     15.76869    10.686887 
   67200    3.0223003    8.3958325    3.0425495    15.969566    9.8335916 
   67400    3.0870237      8.41262    2.9739076    16.014748    10.055938 
   67600    2.9456539    8.4230618    3.0881767     15.92751    12.198644 
   67800    3.0127106    8.4351505    3.0304014    15.982358    11.009933 
   68000    3.0585432    8.4044722      2.92699    15.916983    10.803494 
   68200    3.0330523    8.4063585    3.1193826    16.073045    9.6541037 
   68400    3.0268346    8.3800601    3.0037142    15.921756    13.219018 
   68600    2.9596373    8.4084997    3.0729354    15.918671    10.278845 
   68800    2.9192227    8.4750878    3.0712563    15.922989    10.703259 
   69000    3.0044996    8.4359477    2.9334831    15.873927    10.566362 
   69200     3.000445    8.4185944    3.0583619    15.975373     10.32328 
   69400    2.9728786     8.362807    3.0149427    15.834838    9.9938926 
   69600    2.9585475    8.3949395    2.9176583      15.7482    10.795671 
   69800    3.0231735    8.3916871    2.9259084    15.850088    9.8720883 
adapt lambda = 0.14 a0 = 0.42
   70000    2.9646422    8.3781411    3.0009577    15.823839    10.443925 
   70200    2.9866672    8.3885569    2.9307514    15.797069    11.357601 
   70400    3.0309283    8.4096205    2.9038722    15.857612    10.944414 
   70600    3.0503996      8.40483    3.0107998    15.988941    10.513171 
   70800    3.0247606    8.4240696    2.9859876     15.94493    9.6978495 
   71000     3.009654    8.4163219    3.0132496    15.941795    10.121785 
   71200    2.9389024    8.3935108    3.0648921    15.864552    10.899814 
   71400    3.0012927    8.3954252    2.9284387    15.823552    11.098278 
   71600    2.8666898    8.4005787    2.8905552    15.589019    11.297019 
   71800    2.9960064     8.353645    2.8503764    15.695784     11.38241 
   72000    2.9383217    8.4024651    2.8124309    15.620175    11.839831 
   72200    2.9333506    8.3920269     2.878194    15.668047    10.354988 
   72400    2.9310312    8.4265547    2.9169834    15.737887    11.331328 
   72600    2.9272222    8.4422509    3.0518209     15.88271     11.59974 
   72800    3.0152651    8.3505856      2.88806    15.759282    11.409356 
   73000      2.97478    8.3936663    2.9209652    15.774571    10.601442 
   73200    2.9652681    8.4069005    3.0387037    15.891282    10.887083 
   73400    2.9760539    8.3722504     2.993108    15.827207    12.222481 
   73600    2.9908496    8.3715727    2.9385457     15.79415    11.057022 
   73800    3.0341641    8.3334669    2.9773144    15.859752    10.673054 
   74000    2.9432586    8.4357005    2.9977295    15.846111    10.851407 
   74200    2.9461647    8.3998479    2.9609611    15.777846    11.321914 
   74400    2.9149862    8.4125796    3.0048758    15.787749    11.232135 
   74600    2.9732609    8.4051767    2.9774525    15.840291    11.142932 
   74800    2.9928135    8.3975128    2.9375148    15.822003    10.757698 
   75000    2.9795472     8.414788    2.9039741    15.785848    11.587031 
   75200    2.9223926    8.4581276    3.0192707    15.858795    10.619983 
   75400    2.9564936    8.4848442    2.9713208    15.888688    10.742812 
   75600    3.0340219     8.410516    2.9084591    15.867732    10.356996 
   75800    2.9786462    8.4466651     2.992672    15.905072     10.54974 
   76000    2.9921529    8.4491841    3.0079306      15.9431    11.112184 
   76200    2.9724428    8.4414191    2.9379506    15.835805    10.013772 
   76400     2.964109    8.4138572    2.9735494    15.831347    11.395548 
   76600    2.9034023    8.4394813     3.026912    15.819319    10.491731 
   76800    3.0255374    8.3981265    2.8677828    15.801946    10.108605 
   77000      2.96157    8.3993926    2.9467367    15.786263    10.002814 
   77200    2.9210791    8.4612883    2.9814498    15.822166    8.8233493 
   77400    2.9946335    8.4250699    2.8121582    15.726932     9.845994 
   77600    2.9188909    8.4241877    2.9520037    15.752339    9.2212587 
   77800     2.983643    8.3807534    2.9258107    15.779791    11.381202 
   78000    2.8683242    8.3894886    2.9961079    15.685932    9.9901212 
   78200    2.9525303    8.3692999     3.025036    15.820917    10.638236 
   78400    2.9701602    8.3458459    2.9854172    15.784276    10.944969 
   78600    2.9576239     8.355211    2.9916261    15.781055    10.509382 
   78800    2.9978225    8.3794861    3.0165681     15.89054    9.6245097 
   79000    2.9256321    8.3917744    2.9995178    15.777546    12.653831 
   79200    2.9362957    8.3656922    2.9913351    15.759269    11.541185 
   79400    3.0101746    8.3283608    3.0057516    15.847117    11.227039 
   79600    3.0177937    8.3730362    2.9495526    15.847016    11.039256 
   79800    2.9822095    8.3911812    2.9607285    15.822987    10.968663 
adapt lambda = 0.16 a0 = 0.48
   80000    2.9223323    8.3841966    3.0679439    15.833447    10.879527 
   80200    2.9850637     8.395198    2.9555137    15.826068    10.108603 
   80400    2.9376287     8.407366    2.9786392    15.790245    10.712371 
   80600    2.9875329    8.4180003    3.0238603    15.920919    11.188058 
   80800     2.959786    8.4547927    3.0141567    15.906409    9.9431696 
   81000    2.9741246    8.4434024    3.1319789    16.034338    10.926983 
   81200    3.0360554    8.3701604    2.9584934     15.88046    11.331144 
   81400    3.0413123    8.3696325    2.9274315    15.856751    10.075531 
   81600    2.9778915    8.4108888    2.9775711    15.853064    10.357006 
   81800    2.9219666    8.4108596    2.9293457    15.720964    10.534982 
   82000    3.0325507    8.3642148    2.8937913    15.804558    10.687547 
   82200    2.9386579     8.335382    3.0034877    15.744653    10.803627 
   82400    2.9499108    8.3589122    3.0490803    15.830646    12.101706 
   82600    2.9276571    8.3586853    3.0250555    15.773031    11.901636 
   82800    2.9675186    8.3727702    2.9012911    15.723114    11.559271 
   83000    2.9603173    8.3419754    2.8985067    15.678738     11.35501 
   83200    2.9125055    8.2952948      2.96385    15.625719    10.104229 
   83400    2.9871603    8.4225277     2.981945    15.882973    11.746251 
   83600    2.9952882    8.3977099    3.0401541     15.92855     10.79067 
   83800     2.991327    8.3853457    2.9765098    15.846602    10.990208 
   84000    2.9019232      8.39619     2.926063    15.672961    10.787882 
   84200    2.9421866    8.4218313    2.8283094    15.661214    11.568794 
   84400    2.9564653    8.4257375    2.9849173    15.843135    11.618976 
   84600     2.984798    8.4368849    2.9746362    15.886479    9.8601625 
   84800    3.0302281    8.4099885    2.9581877    15.911246    11.537679 
   85000    3.0314115    8.4424522    3.0208748    16.008171    10.763344 
   85200    3.1173615    8.4443375    2.8843502    16.002392    11.802542 
   85400    2.9768377    8.4342099    3.0462631    15.943497    8.6227388 
   85600     3.032811    8.4228589    2.9646755    15.934476    11.216704 
   85800    3.0285225    8.3805339    2.9615946    15.882641    10.144021 
   86000    3.0126198    8.3467039    2.9036173    15.766992    11.295844 
   86200    2.9532806    8.4013098    2.9171896    15.746205    9.6451846 
   86400    2.9937032    8.3667975    2.9344115    15.789519    13.751551 
   86600    2.9659255    8.4168732     3.036333     15.89987    9.6516304 
   86800    3.0192679    8.3865641    2.9640642    15.877266    10.823933 
   87000    3.0547768     8.425282    2.9796456    15.984802    12.549099 
   87200    3.0625929    8.4133633    2.9743781    15.979334    9.6406883 
   87400    3.0680226    8.3733313    2.9360979    15.909162    10.366144 
   87600     3.024354    8.4209432    2.9173747    15.872581    11.423344 
   87800    3.0167986    8.3940818    2.9994051    15.916422    9.5789278 
   88000    2.9626187    8.3812934    3.0538132    15.876813    10.601274 
   88200    2.9258731    8.3554557    3.1359638    15.878035    10.491139 
   88400    2.9814567    8.3893121    2.9053838    15.764645    10.190668 
   88600    2.9654159    8.3538403    3.0453407    15.845081     11.38028 
   88800     3.032495    8.3676037    3.0429976    15.957069    10.481695 
   89000    2.9846076     8.407451    2.9821347    15.864259    10.077846 
   89200    2.8912604    8.3674591    3.0917358    15.793917    10.453425 
   89400     3.000911     8.361061    2.9878744    15.848051    11.238615 
   89600    2.9595096    8.4288619    2.9719946    15.837901    10.713871 
   89800    3.0406691    8.3465183    2.8739007    15.779142    11.035609 
adapt lambda = 0.18 a0 = 0.54
   90000    2.9400356    8.3447622    2.8997935    15.652404    10.470753 
   90200      2.98027    8.3831973     2.890443     15.74181    10.650651 
   90400    2.9629591     8.408923    2.9101562    15.761296    10.361379 
   90600    3.0036744    8.3705561    2.8776597    15.751475    11.361899 
   90800     2.855349    8.3982354    2.9901708    15.669288    10.261079 
   91000    2.9601108    8.4100608    2.8816707    15.729678    10.388464 
   91200    2.9812158    8.3763546    2.9646796    15.810622    10.010684 
   91400    2.9304097    8.4213229    2.9211706     15.73591    11.520033 
   91600    3.0173213    8.3984722    2.8892152    15.811406    9.9734436 
   91800    2.9846044    8.4225514    2.9091095    15.806329    10.064799 
   92000    2.9442157    8.3942051    3.0444619    15.852782    10.014082 
   92200    3.0315423    8.3761175    2.9850616    15.906219    9.9923125 
   92400    3.0333978    8.3696588    2.9784472    15.895928    10.963299 
   92600    2.9495165      8.41053    3.0684883    15.901081    12.094498 
   92800    3.0419138    8.4175593    3.0442316     16.02238    11.251218 
   93000    3.0689202    8.4051703    2.9835449    15.989794    10.171003 
   93200    3.0897168    8.3657684    2.9549421    15.952968    10.000604 
   93400     3.067119    8.3826254    3.0821013    16.063105    10.958113 
   93600    3.0955265    8.3483175    3.0050552    15.994341    11.712254 
   93800    2.9945519    8.4387704     3.099653    16.028005    11.079235 
   94000    3.0679666    8.3523799    3.0225555    15.974584    11.207509 
   94200    3.0038534    8.3476433    3.0405981    15.891769     11.10627 
   94400    2.9677125     8.412969    3.0081209    15.870433    11.183506 
   94600    3.0574837    8.3898399    3.0163434    15.990116    11.389677 
   94800    3.0096916    8.4062904    3.0597688    15.978339    10.331072 
   95000    3.0110259    8.3769674    3.0732161    15.964464    11.417499 
   95200    3.0507296    8.3636003    2.9849811    15.922388    11.348411 
   95400    2.9758593    8.4069371    2.9860079    15.854502    11.829716 
   95600    2.9813037    8.4533296    3.0155487    15.938598    10.038746 
   95800    2.9797356    8.3778186    3.0742236    15.919411    11.626715 
   96000    3.0095929    8.3817638    3.0136015    15.907497    10.285669 
   96200    3.0157494    8.4202087    2.9967408    15.938312    10.682123 
   96400    2.9486202     8.401196    3.0824584    15.904373    9.6345555 
   96600    3.0986254    8.4058436    3.0173366    16.068794    11.165994 
   96800    2.9777167      8.45028    3.0923558    16.006978    11.820189 
   97000    3.0243838    8.3891469    3.0837302    16.007185    9.0579286 
   97200    3.0547463    8.3764565    2.9818298    15.938115    9.8101982 
   97400    2.9927625    8.4020065    3.0562535    15.945159     11.76937 
   97600    3.0186146     8.393375    3.0335103    15.952543    11.471876 
   97800    3.0073291    8.3513582    3.0010977    15.861194    12.170181 
   98000    2.8918986    8.3538231    3.0397937    15.729296    10.394661 
   98200    2.9130335    8.4138656    3.0244752    15.805706    9.9980154 
   98400     2.948785    8.4278723    2.9615001    15.810338    11.665965 
   98600     2.984428    8.3249144     3.172516    15.971834    10.564428 
   98800    3.0143427    8.3847522    3.1298386    16.033844    10.723133 
   99000    3.0739647    8.4137744    3.0867636     16.10918    11.710834 
   99200    3.0511721    8.4530354    2.9951081    16.022613    10.187989 
   99400    3.0144025    8.4226848    3.0193865    15.961414    11.494108 
   99600    2.9762869    8.4536466    3.0006322    15.916477    10.613868 
   99800    3.0715811    8.3584391    2.9185594    15.882066    11.171217 
adapt lambda = 0.2 a0 = 0.6
  100000    3.0204322    8.4502376    2.9346839    15.913304    12.684723 
  100200     3.015637    8.4016762    2.9876896     15.91056    10.974598 
  100400    3.0312248    8.4839615    2.8889897    15.917515    10.516512 
  100600    3.0309641    8.4104376    2.9536687    15.908279    8.8184287 
  100800    3.1306023    8.3635487    3.0224568    16.079561    10.961092 
  101000    3.0876552    8.4569453    3.0488744    16.134987    10.945132 
  101200    3.0587552    8.4129748    3.0495558    16.048369    10.897854 
  101400     3.057519     8.408996    2.9692416    15.962223    10.781569 
  101600    2.9377255    8.4399749    3.0418152    15.886175     10.83189 
  101800    2.9130304    8.4143655    2.8545939     15.63632    10.335848 
  102000    3.0641726    8.3791196    2.8596732    15.832754    12.805521 
  102200    2.9599789    8.3991628    2.9583118    15.795223    10.097265 
  102400    2.9354675    8.3804208    3.0039485    15.785369    11.340914 
  102600    2.9796821      8.33858    2.8597356    15.665604    12.336855 
  102800    2.9381098    8.3465061    2.9829426     15.73441    10.527654 
  103000    3.0185426    8.3369204    2.8441691     15.70664    12.038303 
  103200    3.0078068    8.3853342    2.8201596    15.714948    10.746868 
  103400    2.9963442    8.4225065    2.8569779    15.771753    10.562207 
  103600    3.0124444    8.4035904    2.9247599    15.844758    10.799509 
  103800    2.9994944    8.3501944    2.9316146    15.778801     11.81464 
  104000    2.9852439    8.4043291    3.1191359    15.999092    10.591179 
  104200    3.0729995     8.397389    3.0053865     16.00997    11.199548 
  104400    2.9274395    8.4192483    3.0674437    15.875656    11.184516 
  104600    2.9547471    8.4081517    2.9320166    15.770073    11.832509 
  104800    2.9549809    8.3793396    3.1466071    15.956202     11.93765 
  105000    2.9822565     8.371531    3.1536752    15.996354    10.997465 
  105200    3.0201475    8.3972829    3.0178197    15.943059    10.535582 
  105400    3.0431148    8.3789214    3.0401341    15.981445    10.617254 
  105600    3.0322242    8.4085781    3.0900359    16.044676     9.704191 
  105800    3.0513474    8.3634245    2.9716583    15.909816    11.604657 
  106000     2.927539    8.3282419    2.9804635    15.697818    10.629214 
  106200    2.8759768    8.4104891    3.0247543    15.747052    11.246778 
  106400    3.0046899    8.4128715    3.0755917    15.993245    10.558532 
  106600    2.9587685    8.3727625    3.1150923    15.923788     12.36044 
  106800    2.9855019    8.3644248    3.0572814     15.89772    11.536348 
  107000    3.0264772    8.3602307    2.9046968    15.802374    10.709434 
  107200    2.9382826    8.3809795    2.9321011    15.718301    11.069445 
  107400    2.9211084     8.381442    3.0535149    15.814429    10.149319 
  107600    2.9387318    8.4250295    2.9562958    15.787219    10.609104 
  107800    2.9950491    8.4382832    2.9369313    15.865542    11.735047 
  108000     3.032944    8.3664311    2.9487468    15.862319    10.038755 
  108200    3.0337223    8.4235854    2.8854432    15.857337    11.421805 
  108400    2.9813927     8.374403    3.0419508    15.886207     10.14973 
  108600     2.945066     8.432764    2.9651532    15.813307    10.875046 
  108800    2.9621074    8.4507878    2.9470006    15.838728    10.607084 
  109000    2.9863996    8.4125846    2.8490618    15.739006    10.997084 
  109200    2.9679418    8.4629866    2.9512869     15.86396    12.163519 
  109400    2.9633645    8.4240531    2.9559544    15.822832    10.196505 
  109600    2.9941344    8.3862852    3.0670593      15.9423    10.450494 
  109800    3.0356321    8.3394955    2.9835712    15.874238    11.505999 
adapt lambda = 0.22 a0 = 0.66
  110000    2.9739615    8.4213842    2.9640877    15.844184    10.939645 
  110200    3.0318232     8.378478    2.9717054    15.895644    11.038761 
  110400    2.9792273    8.4425276    2.9717081    15.880842    11.229798 
  110600     2.911885    8.4327988    3.0463102    15.844753    11.077866 
  110800    2.9887283    8.4697023      2.97214    15.922693    10.841658 
  111000    2.9627299    8.4756539    2.9479934     15.86552     11.29503 
  111200    3.0123167    8.4334861    2.8938774    15.843579    11.145975 
  111400    3.0183679    8.4439677     2.858438    15.827694    11.202177 
  111600    2.9965787    8.4292967    2.9084104    15.830328    11.159018 
  111800     2.987219    8.4217791    2.8859387    15.786306    11.598707 
  112000    2.9942122    8.4262917    2.9302336    15.845598    10.866657 
  112200    2.9278341    8.3992977    3.1115846    15.900438    10.987691 
  112400    3.0727711    8.3825446    2.9903086    15.979705    11.418601 
  112600    3.0335585    8.4355954    3.1162969    16.099955    9.7116907 
  112800    3.0960692     8.383064    3.1400137    16.164859    9.5828481 
  113000    3.1392276    8.4307504    3.0458388    16.183076    11.806746 
  113200     3.130644    8.4487246      3.12955    16.271893    9.8750809 
  113400    3.1109788    8.5123592    3.0259653    16.202459    10.802095 
  113600    3.1744053    8.4521543    2.9126272    16.124009    13.248949 
  113800    2.9553955    8.4874361    3.0458159    15.964129    10.500838 
  114000    2.9759825    8.4530267    3.0018196    15.916588    10.241139 
  114200    2.9965282     8.433817    3.1007604    16.027122    10.997942 
  114400    3.0444379    8.4422827    3.0952717    16.101928    10.779649 
  114600    3.0252253     8.368137      3.16731    16.071016    11.355786 
  114800    2.9333526    8.3666056    3.1619218    15.926356     10.85798 
  115000    3.0476857    8.4036938    3.0436338     16.01657    11.012212 
  115200    2.9291654    8.4080611    3.0449189    15.844531    10.409058 
  115400    3.0231163    8.3735748    2.9901351    15.896117    9.4088967 
  115600    2.9416017    8.4529503    2.9481253    15.811272    10.963561 
  115800    3.0090744    8.4433949    2.9272255    15.881975    10.742579 
  116000    3.0376806    8.3897047    3.0113746    15.955322    11.285055 
  116200    3.1004278      8.38886    2.9912936     16.02847     10.69271 
  116400    3.0064676    8.3990369    3.0248573    15.931341    11.200619 
  116600    3.0020046    8.4277252    3.0380283    15.966509    10.991212 
  116800    2.9471072    8.4024163    2.9919246    15.812791    10.902531 
  117000    3.0303863    8.3896861      2.93684    15.869833    10.504865 
  117200    3.0544269    8.4229833    2.9366472     15.93898    10.727876 
  117400      3.05648    8.4337801    3.0663238    16.082532    10.738404 
  117600    3.0382556    8.4337901    3.0310728    16.019968    10.661206 
  117800    2.9666305    8.4361342    3.1273124    16.011167    10.659217 
  118000    2.9977018    8.4002834    3.1379217    16.032509    10.458217 
  118200    3.0088823    8.3798738    3.1822338    16.073174    10.702458 
  118400    3.0133798    8.3748068    3.0945482    15.987165     11.57684 
  118600     3.067189     8.427973    3.0160008    16.042457    11.332721 
  118800    3.0514006    8.4463832    2.9563201    15.977516    11.223446 
  119000    2.9767318    8.4273784    2.9432525    15.833496    10.947816 
  119200     2.948375    8.3910977    2.9740364    15.785485     11.24317 
  119400    2.8549359    8.3955095    3.0182893    15.694061    10.171327 
  119600     3.011779    8.3973973    2.9758683    15.888675    12.442384 
  119800    3.0431328    8.4096732    2.8950315    15.867122    10.664374 
adapt lambda = 0.24 a0 = 0.72
  120000    3.0402233    8.3792842    2.9753868    15.912726    10.519107 
  120200    3.0688996    8.3828661    2.8566786    15.840592    9.1421701 
  120400    2.9807154    8.4023569    2.9952953     15.86649    10.350087 
  120600    2.9901888    8.3656353      3.10184    15.950516    11.023111 
  120800    3.0126735    8.3862992    3.0175262    15.920576    12.053921 
  121000    3.0810311    8.3760019    2.9751915    15.970429    10.940783 
  121200    3.0437668    8.4482176    3.0279165    16.039501    12.213731 
  121400    3.0157418    8.4321774    3.0026825    15.956211    10.352449 
  121600    2.9901396     8.390442    3.0044163    15.877825    9.8929206 
  121800    2.9471826    8.4353878    3.0404852    15.894436    11.420172 
  122000    3.0316594     8.399594    2.9652001    15.910009    11.086217 
  122200     3.008643    8.4288677    2.8848743     15.82445    11.417612 
  122400    3.0671894     8.381445    2.9267255    15.906654    10.737264 
  122600    2.9313283    8.4222374    2.9662295    15.783261    10.214036 
  122800     2.901962    8.3933827     2.895823    15.639972    10.386822 
  123000    2.8424744    8.3742778    3.0470184    15.682876    10.071227 
  123200     2.922846      8.37778     2.957622    15.717479    12.853065 
  123400    2.9519865    8.3933476    2.9742092    15.793323    12.279028 
  123600    2.9673256    8.4117055    2.9383321    15.798801     11.54023 
  123800    3.0236774    8.4269482    3.0429644    16.003161    9.8147775 
  124000    3.0342681    8.3665696    2.9941997    15.909896    11.656239 
  124200    2.9939285     8.411547    2.9821894    15.882384    12.019301 
  124400    2.9414064    8.3620568    2.9904904    15.762451    11.485852 
  124600    3.0386201    8.3353483    3.0244597    15.915459    9.8653737 
  124800    3.0229912    8.3765734    2.9910877    15.899881    10.273961 
  125000     2.972712     8.427869    3.0277805    15.912488     12.57155 
  125200    2.9196715    8.4549476    2.9314469    15.763712    12.124366 
  125400    3.0224585    8.4051443    2.9649037    15.901469    11.277933 
  125600    3.0482697    8.3558966    2.9094525    15.835467    11.567608 
  125800    2.9895383     8.396035    2.9850537    15.863154    11.232982 
  126000    3.0215529    8.4361396    2.9314882    15.897691     9.990189 
  126200    2.9550604    8.4062982    2.9859685    15.822641    10.834787 
  126400    2.9728548    8.3975847    3.1089681    15.963605     9.670982 
  126600    2.9847529    8.3776758     2.935858    15.788425    10.367451 
  126800    2.9177874    8.4210671    2.9800928    15.775653    10.850264 
  127000     2.964098     8.350749    2.9573772     15.75205    10.002513 
  127200    3.0087089    8.4366934    2.9159092    15.863409    10.246949 
  127400    2.9659027    8.4515027    3.0165438    15.914676    10.531965 
  127600    3.0113338    8.4095477    2.9691924    15.893482    13.117972 
  127800    3.0486344    8.3924596    2.9458837    15.909008    11.790821 
  128000    2.9342183    8.4526968    2.9687688    15.820592    11.147025 
  128200    2.9540367     8.385525    2.8182812    15.632646    10.467934 
  128400     2.956401    8.3727707    2.9821339    15.787289    11.701573 
  128600    2.9530268    8.4043755    2.9810934    15.812794    10.435658 
  128800    2.9376672    8.4098458    3.0480407    15.862184    10.409692 
  129000    2.9763455    8.4247652    3.0082552    15.895306     10.87686 
  129200    3.0244206    8.3701255    2.9841016     15.88859    9.9745005 
  129400    2.9653125    8.3906288    3.1125844    15.948958    9.9305797 
  129600    3.0066947    8.4008469    3.0818093    15.990443    11.656742 
  129800    2.9716529     8.389122    2.9874537    15.831826     11.10897 
adapt lambda = 0.26 a0 = 0.78
  130000    2.9896243    8.4059194    2.9357033    15.823817    13.070154 
  130200    2.9764225    8.3944925    2.8967105    15.753604    10.727393 
  130400     2.950556    8.3891691    2.9352569    15.748047    11.362126 
  130600    2.9535937    8.3935372    2.8843299    15.706042    10.125332 
  130800    3.0061336     8.414059    2.8558072    15.776812    10.249703 
  131000    3.0725532    8.3586353    2.8430636    15.808224    11.104206 
  131200    3.0104624    8.3995939    2.9871847    15.900214    11.343403 
  131400    2.9856845      8.36532    3.0094773    15.851085    10.848818 
  131600    2.9637707    8.3834589    2.9812855    15.808178    10.217939 
  131800    2.9123689    8.3917597     2.952804    15.710933     11.21313 
  132000    2.9266343    8.3704017    2.8989977    15.657156    10.603778 
  132200     2.828789    8.4106275    2.9372521    15.588942    10.991755 
  132400    2.9346624     8.372366    2.9922104    15.764369    11.333439 
  132600    2.9201211    8.4343272    2.9468838    15.759202     11.68495 
  132800    3.0345574    8.3896665    3.0194025    15.958629    11.252267 
  133000    3.0338832    8.3774369     3.047107    15.973093    11.439778 
  133200    3.0507007    8.3967161    3.0410591    16.011538    10.028242 
  133400    2.9821387    8.4041345    3.0290948    15.904201    10.717274 
  133600    3.0045491    8.3955592    2.9894405     15.88957     12.45885 
  133800    3.0490433    8.3975194    2.8318673    15.800665    11.861533 
  134000    2.9630023    8.3985936    2.9865435    15.827418     10.71236 
  134200    2.9658629    8.4056294    2.8950666    15.747266    10.912172 
  134400    2.9716103    8.4214547    2.9493723    15.826014     11.02022 
  134600    3.0267303    8.4321966    2.9955921    15.965614    9.5841715 
  134800    3.1148116    8.4064937    2.9759116    16.052287    11.455588 
  135000    3.0391155    8.4037352     3.052965    16.013094    9.3643814 
  135200    3.0751718    8.3903839    3.0413058    16.042141     11.06509 
  135400    3.0909237    8.4293486    3.1000461    16.163462    11.148646 
  135600    3.1293992    8.3459177    3.0201076    16.057777    11.316505 
  135800    3.1209201     8.425045    3.0567756     16.16086    10.411484 
  136000    3.0650821    8.3937288     3.012805    16.001858    10.083858 
  136200    3.0267498    8.3629721    2.9927585    15.893585    13.004362 
  136400    3.0227554    8.4161901     2.858901    15.806957    10.270661 
  136600    2.8955235    8.4227675    2.9601837    15.724065    11.722171 
  136800    2.9287619     8.389419    2.9209858    15.701351    10.158441 
  137000    3.0136925    8.3638342     2.959528    15.841641     10.93748 
  137200    2.9426476     8.339849    3.0036982    15.755312    10.377012 
  137400    2.9014984    8.3586696    2.9377032    15.646444    9.9439011 
  137600    2.9580578    8.3062506     2.984249    15.725368     11.08086 
  137800    2.9839531    8.4080715    2.9342391    15.816002    9.5047675 
  138000    3.0117563    8.3819262    2.9600225    15.857324    10.491433 
  138200    2.9674276    8.3651581    2.9614888    15.775563    10.083265 
  138400    2.9380462    8.3749715    2.9731048    15.752942    9.8827128 
  138600    2.9441269    8.4349924    2.9639697    15.812944    11.954784 
  138800    2.9222751    8.3240976    3.0398505    15.745169     11.92277 
  139000     3.051139    8.3879314    2.9157305    15.878082    10.249236 
  139200    2.9532569    8.3922839    2.9462945    15.766249    11.203703 
  139400    3.0204741    8.3331752    2.9484629    15.810084    10.013888 
  139600    3.0284761    8.4005632    2.9990353    15.940041     11.15214 
  139800    3.0361881    8.3744125    3.0190405    15.945458    11.910012 
adapt lambda = 0.28 a0 = 0.84
  140000    3.0338648    8.3723115    3.0749515    15.995785    10.832191 
  140200    3.0190629     8.402282    2.9929189    15.921531    12.309689 
  140400    3.0126621    8.3814692    2.9597825    15.857985     11.42407 
  140600    3.0692064    8.4162784    3.0402642     16.05805    11.261871 
  140800     3.002796    8.4443408    3.1025274     16.04881    11.357755 
  141000    3.1099345    8.4070995    2.9422855    16.011954    9.7549607 
  141200    2.9380469    8.3729747    3.0894645    15.867306    10.780888 
  141400    3.0880152    8.3661628    2.8946646    15.890534    10.941029 
  141600    2.9505031    8.4372842    2.9399158    15.800742    10.042235 
  141800     2.939499    8.4117236    3.0051363    15.823904    11.764788 
  142000    2.9828701    8.3977123    2.9012333    15.771014    11.157461 
  142200    2.9471576    8.3866757    2.9323917    15.737593    10.398308 
  142400    2.9710194    8.4620695    2.9059819    15.822352    11.086568 
  142600    2.9202558    8.4191682    3.0047485     15.80211    10.790447 
  142800    2.9727639    8.3854701     2.998979    15.841365    10.164862 
  143000    2.9687134    8.3396036    3.1116895    15.902137    10.514507 
  143200    2.8823774     8.420102    3.0210061    15.762512    10.455655 
  143400    2.9219465    8.3739347    2.9704147    15.725078    11.863779 
  143600    3.0144208    8.3722618    2.9120374     15.80367     12.66172 
  143800    2.9490583    8.3603089     2.973792    15.755477    11.492516 
  144000    2.8875501    8.3914794    3.0019429    15.722582    10.183189 
  144200    2.9377671    8.4068276    2.9816257    15.792901    11.632828 
  144400    2.9207177    8.3817301    2.9197413    15.680357    11.626452 
  144600     2.892852    8.3473784    2.9377379    15.622225    11.787626 
  144800    2.8961904    8.3746569     2.961359    15.678129      10.2958 
  145000    2.8911684    8.3845715    2.9128905    15.632046     10.34559 
  145200    2.9572243    8.3809162    2.9323798    15.746915    11.275084 
  145400    2.9553079    8.3720884    2.9857797    15.788614    10.916076 
  145600    2.9719943     8.356559    3.0848718    15.897193     12.41672 
  145800    3.0510486    8.3238255    2.9843262    15.882436    9.0975279 
  146000    3.0290999    8.4258948    2.9452136    15.912486    10.487069 
  146200    2.9697303    8.4035866    3.0862179    15.942173    13.102789 
  146400    2.9106919    8.4098007    3.0435459    15.817201     11.58281 
  146600    2.9030468    8.4489259     3.033963    15.835282    11.850459 
  146800    2.9748208    8.4619181    2.9619063    15.883824    11.037494 
  147000    2.9816672    8.4302026    2.9948987    15.895366    10.327661 
  147200    3.0310883    8.3570207    2.8788586    15.780238      10.8892 
  147400     2.967099    8.3752609    2.9658051    15.789489     12.09341 
  147600    3.0452121    8.3865034    2.9397509    15.891788    12.105282 
  147800    2.9645331    8.3929136    2.9750987    15.812589    11.703227 
  148000    3.0230466    8.4223957    2.8913646    15.846063    11.509552 
  148200    3.0784342    8.3653952    2.9971927     15.97793    11.625131 
  148400    3.0597206    8.3968819    2.9726704    15.956838    9.7466477 
  148600    3.0101286    8.4326395    2.9682912    15.913866    10.570408 
  148800    3.0080138    8.3873965    2.9356873    15.832849    10.537049 
  149000    3.0174435    8.4061173    2.9878212    15.917841    11.133006 
  149200    2.9907055    8.3581712    3.0367975    15.878784    11.328999 
  149400    2.9291926    8.3198479    3.1611548    15.872595    9.3545912 
  149600    2.9712864    8.3459195    3.0473252    15.847946    10.854179 
  149800    2.9315205    8.4189018    3.0918175    15.905801    9.6118794 
adapt lambda = 0.3 a0 = 0.9
  150000    2.9897742    8.4111519     3.082831    15.976402    11.405987 
  150200    3.0332005    8.3932935    3.0644476    16.005267    10.256051 
  150400    3.0504771    8.4216973    2.9550764    15.950201    12.336392 
  150600    3.0023514    8.3804592    3.0261406    15.907875    11.081859 
  150800    2.9507389    8.3866307    3.0365889    15.847115     11.25114 
  151000    3.0352723    8.3382363    2.9661613     15.85503    11.836298 
  151200     2.963816    8.3926482    3.0280103     15.86416    11.636021 
  151400    2.9817566    8.3537639    2.9460796    15.770242    12.725573 
  151600    2.9325047    8.4093281    2.9255581    15.731444    10.377359 
  151800    2.9399344     8.383713     2.923048    15.714458     10.54256 
  152000    2.9080064    8.3528703    2.9219511     15.63465    10.664276 
  152200    2.9216754    8.3216584    3.0536719    15.755652    10.416491 
  152400    2.9577415    8.3579876    3.0169747    15.809356    11.319097 
  152600    2.9777161    8.3596512    2.9271739    15.751166    10.894744 
  152800    3.0651323    8.3233993    2.9044324    15.823231    10.939415 
  153000    3.0541548    8.3397988     2.960557    15.879297    11.416003 
  153200    2.9414416    8.3422059     2.997211    15.749373    11.370772 
  153400    3.0246449    8.3685915    2.9791079    15.882398    9.9151897 
  153600     3.001203    8.3974301    2.9979585    15.894942    10.418339 
  153800    3.0436866    8.4117487    3.0147325    15.989728    11.127565 
  154000    3.0012902    8.3630149    3.0664833    15.929182    10.335661 
  154200     3.012278     8.391172    3.0436008    15.950931    11.590047 
  154400    2.9610049    8.3627011    3.0432102    15.845198    11.738433 
  154600    2.9646645    8.4244799    2.9119382    15.781191    11.415747 
  154800    2.9595282    8.3863789    2.9616656    15.785117    9.5924366 
  155000     2.985765    8.4374364    2.9531737    15.867018     10.12779 
  155200    3.0018693    8.4030532    2.9984795    15.902085    10.442443 
  155400    2.9693615    8.4172082    2.9252886    15.794312    11.226805 
  155600    2.9173991    8.4271033    2.9767228    15.777737    12.088685 
  155800    2.9694788    8.3718896    3.0469406    15.870821    10.048519 
  156000    3.0369421    8.4014961    3.0439323    15.998564    9.8378815 
  156200    2.9994017    8.4813514    3.0412359     16.01944    11.099745 
  156400    2.9696284    8.4448651    3.0596094     15.95669    10.613396 
  156600    3.0308825    8.4714975    2.9937189    16.009267    11.781215 
  156800    3.0068159    8.4270954    2.9867693    15.921834    9.9161226 
  157000    3.0903384    8.4348312    2.9837215    16.051742    11.168601 
  157200    3.0659376    8.4330648    2.9381553    15.967827     10.28088 
  157400    3.0143966     8.454572    2.9672592    15.941165     10.81123 
  157600    3.0545243    8.4252761    2.9468294    15.951601    10.131688 
  157800    3.0142033    8.4592234    2.9303839    15.908652    10.324095 
  158000    3.0310735    8.4505274    2.9251195    15.919984    11.072168 
  158200    2.9691999    8.4378434    3.0238255    15.913242    11.659926 
  158400    2.9719992    8.4425943    3.0177926    15.916157    10.378261 
  158600    2.9797498    8.4137839    3.0475834    15.928757    12.141399 
  158800    3.0230141    8.4275257    2.9185761    15.878356    10.645729 
  159000    3.0456622    8.4394975    3.0137859    16.019493     10.84976 
  159200    3.0566477    8.4449008    2.9514613    15.979041    11.339527 
  159400    3.0020705    8.4065761    3.0004904    15.907921    11.335825 
  159600    3.0608034    8.4235575     2.979589    15.992056    11.075547 
  159800    2.9843397    8.3926244    3.0232624    15.890158    9.2925368 
adapt lambda = 0.32 a0 = 0.96
  160000    3.0059853    8.4007063    2.9100168    15.817447    11.051592 
  160200    2.9588572     8.427982    2.9474368    15.811485    11.306727 
  160400    2.9907412    8.3918229    2.9721841    15.847876    11.511536 
  160600    2.9256141    8.4146731    3.0152691    15.816169    11.716342 
  160800    2.9364206    8.4359563    3.0494231    15.887808      11.6117 
  161000     2.995301    8.3843017    3.0503806    15.925387    12.358599 
  161200     3.013001    8.4018133    2.9684202    15.887475    11.649304 
  161400    2.9743492    8.3907646    3.0127809    15.862839    9.6803083 
  161600    2.9937868     8.398213     3.061385    15.948033    10.830377 
  161800    2.9851418    8.3802087    3.1141028    15.969785    11.060734 
  162000    3.0777818    8.3638925    3.0136875    15.991944    11.502647 
  162200    3.0476663     8.395125    3.0025706    15.966909    10.893079 
  162400    3.0108524    8.4121187     2.924075    15.850214    11.024128 
  162600    3.0276679    8.4503821     2.898535    15.888148    10.426334 
  162800    2.9681663    8.4335407    2.9080278    15.791592    10.163836 
  163000    2.9083513    8.4971882    2.9530545    15.810588    9.9237754 
  163200    2.9629442    8.4154835    2.9384326     15.79611    11.607769 
  163400     3.012356     8.468259    3.0289227    16.013457    9.5609025 
  163600    2.9748967    8.4183184    3.0191927    15.897625    10.742164 
  163800    2.9918083    8.4489012    2.9752869    15.909657    10.186488 
  164000    2.9777422    8.4378124    2.9722856    15.874478    11.165115 
  164200    2.9851167    8.4502006    2.9877008    15.913338    10.987698 
  164400    3.0061319    8.4166919    3.0051779    15.928813    10.910945 
  164600    2.9367822    8.3920377    3.0031021     15.79811     10.48644 
  164800      2.93136    8.3979621       3.0874    15.880204    11.287775 
  165000    2.9726552    8.3491402    3.0536033    15.859497    9.9366128 
  165200    2.8317198    8.4554345    3.0676341    15.768524    9.6470606 
  165400    2.9142743    8.4565023    2.9189208    15.744649    11.548181 
  165600    2.9887895     8.381895    2.9582398    15.821077    9.4176291 
  165800    3.0466531    8.4130794    2.8973807    15.878155    9.9819751 
  166000    3.0345113    8.3885485    2.9413517    15.879391    10.966674 
  166200    3.0028652    8.4152943    2.9119659    15.829306    12.880172 
  166400    2.9630142    8.2987011    3.0235801     15.76458    11.190075 
  166600    3.0499039    8.3849468    3.0597178    16.017233    11.021486 
  166800    2.9706975    8.3592955    3.0928224    15.905936    11.419987 
  167000    2.9722357    8.3572609    2.9973258    15.810711    11.841749 
  167200    2.9390825    8.3408695    3.1098176    15.857106    11.318678 
  167400     3.028361    8.3954952    3.0277694    15.963535    11.511735 
  167600    2.9966308    8.4331312    2.9999434    15.925773    10.752961 
  167800    3.0235404    8.3846408    3.0360253    15.953709    10.269079 
  168000    2.9784048    8.3997183    2.9974497    15.862541    10.565139 
  168200    2.9908054    8.3927742    2.9219098    15.798649    10.352692 
  168400    2.9521649    8.4271243    2.9645955    15.817753    10.343439 
  168600    3.0731794    8.3603381    2.8537978      15.8216     12.12827 
  168800    3.0160399    8.3924093     2.984831    15.899038    9.8122153 
  169000    3.0097364    8.3973442    2.9817283     15.89142    9.6081384 
  169200    2.9870224    8.4189271    3.0429448    15.940165     10.82613 
  169400    3.0314374    8.4346559    3.0409699    16.020508    11.564365 
  169600     3.048958    8.4120578    2.9580848    15.941293    11.175884 
  169800    3.0950612    8.3644614    2.9975192    16.002251     9.949106 
adapt lambda = 0.34 a0 = 1.02
  170000    3.0986876    8.4184045     2.997149    16.061261    10.954978 
  170200    3.0361373     8.418382    2.9801413    15.950452    11.388169 
  170400    3.0265478    8.4004422    3.0793669    16.017361    11.848183 
  170600    3.0876277    8.3898687    3.1924385    16.211433    12.313983 
  170800    3.0609219    8.3642474    3.0743355     16.02767    11.801975 
  171000    3.0074364    8.4434223    3.0087077    15.961029     10.43033 
  171200    3.0008324      8.38288    3.0801919     15.96207    10.391208 
  171400    2.9922385    8.4185199    2.9412771    15.845911    11.590688 
  171600    3.0258657    8.3882318    2.9856653    15.910426    12.148399 
  171800    2.9756987    8.3756994    2.9613522    15.798368    10.209311 
  172000    3.0115591    8.4124269    2.9154957    15.843003    9.5480289 
  172200    3.0439672    8.3979083    2.9380676    15.899644    10.015192 
  172400    3.0335619    8.3816703     2.953705    15.883443    11.178897 
  172600    2.9681185    8.3885855    3.0083426     15.84688    10.041667 
  172800    2.9090824    8.4312685    3.0158061    15.808516    11.108827 
  173000    2.8869141    8.4197131    2.9715851    15.719504    11.636816 
  173200    2.8733593    8.3892772    3.0445634    15.741725    10.233002 
  173400    2.9203391    8.3728851    2.9688078    15.720011    9.8822539 
  173600     2.921474    8.3625887    2.9623684    15.704977    11.381621 
  173800    2.9615676    8.3806687    2.9717746    15.792573    9.2211487 
  174000    3.0218074    8.4242239    2.8800061    15.834675    12.086467 
  174200    3.0067283    8.4212235    3.0453009    15.974362    9.3024321 
  174400    2.9809002    8.4554325    3.0003954    15.924943    10.260654 
  174600    3.0282181    8.4174987    2.9009158     15.85847    11.310479 
  174800     2.943555    8.3795017    2.9040977    15.696724    11.180934 
[...]
  453400    3.0918672    8.4246402     3.010228     16.07035    10.485026 
  453600    3.0275355    8.4288285    3.0871832    16.055044    12.017418 
  453800    3.0574741    8.4313243    3.0878961    16.103138    11.044401 
  454000    2.9646506    8.4457008    3.1247029    16.015156    12.667264 
  454200    3.0928752     8.438233    3.0174193    16.092645    10.351459 
  454400    3.0362928    8.4397116     3.132442    16.124315    11.121937 
  454600     2.978818    8.4504263    3.1249719    16.041391    10.712554 
  454800    2.9933191    8.4469835    3.1498897    16.084607    11.016742 
  455000     3.003981    8.4256053    3.0385965     15.96792    9.8934416 
  455200    2.9380798    8.4447095    3.0022387    15.851864    11.289476 
  455400    2.9425188    8.4885606     2.985231    15.885363    9.4202868 
  455600    3.0428072    8.4240039    2.9132035    15.899136    11.015346 
  455800    2.9532276    8.4827491    3.0316426    15.942018    8.9603125 
  456000    3.0260673    8.3943348    2.9754767    15.906643    10.473696 
  456200    2.9884305    8.4032779     2.926591    15.810273    11.915068 
  456400    2.9204465    8.4400242    2.9125304    15.731034    10.912014 
  456600    3.0004506    8.3902129    2.8735919     15.76223    13.229689 
  456800    3.0079849    8.4236415    2.9222016    15.855565    11.147804 
  457000    3.1027253    8.4633449    2.9103083    16.025414    12.315608 
  457200     3.048657    8.4301428    2.9585866    15.959428    10.610919 
  457400    3.0057518    8.3934878    2.9556746    15.855536    11.109374 
  457600     3.021519    8.4580308    2.9864852    15.974528    10.976497 
  457800    3.0235739    8.4512084    2.9773545    15.961656    10.179024 
  458000    3.0482113    8.4365201    3.0069377    16.013489    11.013346 
  458200    3.0319794    8.4404183    3.0408483    16.026962    11.619394 
  458400    2.9549797    8.4635428    3.0221508    15.915947    10.503493 
  458600    2.9419292    8.4311738    3.0011965    15.843058    11.177319 
  458800     2.959376    8.4637071      3.01215    15.912702    11.009855 
  459000    2.9868834    8.4544627    3.0157787    15.948326    10.162441 
  459200     3.037006    8.5041036    2.9276172    15.984952    10.718332 
  459400    3.0501192    8.4587371    2.9632807    15.994909    11.953817 
  459600    3.0628747    8.4798407    2.9698244     16.04168    11.319695 
  459800    3.0489644    8.4088536    3.0775548    16.057568    10.517579 
adapt lambda = 0.92 a0 = 2.76
  460000    3.0128801    8.4313305    3.0978566    16.046248    10.441911 
  460200     2.943869    8.4299048     3.053931    15.897431     12.48864 
  460400    2.9971472    8.4099419    3.0755433    15.978958    11.392924 
  460600    2.9572841    8.4219413    3.0118802     15.86753    11.238615 
  460800     2.934287    8.4085404    3.0245856    15.832356    11.857884 
  461000    2.9218207    8.4238942    2.9726052    15.777039    10.421945 
  461200    3.0637529    8.3738979    2.9292337    15.896463    10.475325 
  461400     3.065778     8.388869    2.9157908    15.901027     10.87468 
  461600    3.0540546    8.4259211     2.866562    15.871274    11.287729 
  461800    2.9429416    8.4075472    2.9861713    15.805924    11.176348 
  462000    2.9753858    8.4347815    2.9116542    15.807283    9.8292679 
  462200    2.9750027    8.4380428     3.028198    15.926514    10.423917 
  462400    3.0032397     8.394593    2.9825543    15.879754    11.411346 
  462600    3.0145761    8.4402688    2.8352281      15.7951    11.066891 
  462800    3.0066454    8.4445611    2.9559168    15.908191    11.771044 
  463000    2.9588018    8.4062795    2.9402004    15.782463     9.650069 
  463200     2.953438    8.4536263    2.9747337    15.856302    10.252884 
  463400    2.9916274    8.4109787    3.0186833    15.914859    10.165962 
  463600     2.968983    8.4259123    2.9864038    15.863564    11.725141 
  463800    3.0417768     8.383397     2.961472    15.905253    10.467285 
  464000    3.0024734    8.4133184    2.9931842    15.907961    9.6004267 
  464200    2.9622165    8.3672501     2.956363    15.764716    11.311322 
  464400    2.9642148    8.3860567    2.9567886    15.786944    10.711857 
  464600    2.9469717     8.451411     3.014155    15.883813    11.626701 
  464800    2.9677061    8.3954752    3.0760107    15.920819    10.594229 
  465000    2.9699515    8.4436286    3.0023319     15.89866     10.33127 
  465200    3.0205264     8.422273    2.8986501    15.849447     10.03827 
  465400    2.9899221    8.4484392    3.0027784    15.933858    12.948698 
  465600    2.9520145    8.4636867    3.0083571    15.897852    12.137146 
  465800    3.0884137    8.4096392    2.9886763     16.02862    9.8005835 
  466000      3.09199    8.4798068    3.0628464    16.178319    11.828563 
  466200     3.126692    8.4470761    3.0629935    16.197763    10.778634 
  466400    3.0755997    8.4343501    3.1156888    16.161132    9.5512377 
  466600    3.0656778    8.4675445    3.0612305    16.124992    10.995042 
  466800    3.0737409    8.4320072    2.9414503    15.981764    10.946998 
  467000    2.9878884    8.4322906    3.0097147    15.921597     10.69809 
  467200    3.0206457    8.4033567    2.9956707     15.92773    11.173995 
  467400    3.0146788    8.4062297    3.0621643    15.988151    10.289552 
  467600    2.9006815    8.4740953    3.0287116    15.851654    12.496878 
  467800    3.0305881    8.3839474    2.8734707    15.801027    11.330198 
  468000    2.9071786    8.4746466    2.9925285    15.825763    10.928828 
  468200    3.0050022     8.376801    3.0026616    15.884712    11.486814 
  468400    3.0290436    8.4257625     2.956175    15.923231    11.770167 
  468600    2.9516673    8.4203013    3.0686504    15.914239    10.847172 
  468800    3.0035683    8.4600021    3.0301901    15.993292    11.100229 
  469000    3.0113191     8.443314    2.9857476    15.943782    11.312202 
  469200    2.9966608    8.4319107    3.0794599    16.004114    12.100331 
  469400    2.9921899    8.3885683    3.0461568    15.920766    9.9292233 
  469600    2.9586718    8.3711612    3.0064721    15.813422    10.325319 
  469800    3.0093565     8.378251    2.9936392    15.883668    12.274508 
adapt lambda = 0.94 a0 = 2.82
  470000    3.0022384    8.4721496    3.0402552    16.013511    12.328906 
  470200     3.028116    8.4284288    3.0159833    15.984315    11.184891 
  470400    2.9631454    8.4441237    3.0090571    15.895676    10.331642 
  470600    2.9541953    8.4849885    3.0554322    15.969498    13.061253 
  470800    2.9828258    8.4167194    2.9990534    15.887774    11.518615 
  471000    3.0144743     8.431525     2.985815    15.936791    12.837487 
  471200    2.9905303    8.4273613    3.0366013    15.947515    10.665167 
  471400    3.0098179    8.4746545    3.0827501    16.069874    11.343266 
  471600    2.9387954    8.4137043    3.1117214    15.931415    11.136165 
  471800    2.9857358    8.4550292    2.9687128    15.900106    10.980677 
  472000    3.0197965    8.3955696    2.9763369    15.899336    10.372927 
  472200    2.9977178    8.4304679    2.9875942     15.91239    10.046995 
  472400    2.9930951    8.4130781    3.0486708    15.949147    12.943711 
  472600    2.9301354    8.4385872     3.064131    15.895724    11.907972 
  472800    2.9497314    8.4233378     3.034966    15.880689    10.426029 
  473000    2.9021048    8.4178008     3.044741    15.813522    11.849062 
  473200    2.9589538    8.3789229    3.1292693    15.944404     11.20546 
  473400    2.9853168     8.406951    3.0397814    15.922469    9.6098701 
  473600    3.0337654    8.4685051    3.0093694    16.026247    10.624332 
  473800    3.1084205    8.4236151    2.9390737    16.022988    10.305228 
  474000    3.0897935     8.400833    2.8837919    15.916998    10.449827 
  474200    2.9646809    8.4135503    2.9160614     15.77441    11.501672 
  474400    2.9733438    8.4131124     2.878527    15.749425    9.9668176 
  474600    2.9308104     8.419535    2.7968137    15.610366    11.282389 
  474800    2.9133977    8.4328771    2.8844318     15.68522    13.029424 
  475000    2.9774801    8.3782209    2.9459654    15.788173    12.194425 
  475200    2.9609884     8.431777    3.0348864    15.905925    11.125585 
  475400    2.9487846    8.4023457    3.0772788     15.90059      12.3088 
  475600    2.9943866    8.3850256    3.0174155    15.891775    12.666236 
  475800    2.8892084    8.3806489     3.065957    15.778252    11.133644 
  476000    3.0202668    8.3436237    3.0525206    15.924279    12.380989 
  476200    2.9955965    8.4050805    3.0624827    15.958711    10.943256 
  476400     2.980195    8.4304757    2.9082267     15.80676     12.07469 
  476600    3.0481834    8.4092385    2.9225899    15.901817    12.568192 
  476800    2.8501559     8.443773    3.0858503     15.80272    9.7256517 
  477000    3.0204203    8.4049117    2.9524796    15.885756    12.247761 
  477200    3.0085608    8.3597675    3.0984797    15.968832    11.653454 
  477400    2.9858917    8.4419689    3.0145228     15.93309    10.897616 
  477600    2.9856343      8.43215     3.026803    15.935165    11.629505 
  477800    3.0181724    8.3998661    3.0011105    15.925972    10.252173 
  478000    2.9411058    8.4013287    3.0563768    15.867158    9.7284511 
  478200    2.9785617    8.3518094    2.9224534    15.739871    11.938454 
  478400    3.0017215    8.3753829    2.9677122    15.843426    11.936996 
  478600     2.981207    8.3938293    2.9784913    15.841895    12.441724 
  478800     2.976139     8.416778     3.058951    15.937705    10.799887 
  479000    3.0222791    8.3764611    3.0368795    15.944492    12.317967 
  479200    2.9956938    8.3251578    3.0909087     15.90736     10.92914 
  479400    2.9160235    8.3737649    3.0831368     15.82875     12.10374 
  479600    3.0797922    8.3967204    3.0322405    16.046339    9.4244022 
  479800    3.0524909    8.4370318    3.0628901    16.076369    9.7785745 
adapt lambda = 0.96 a0 = 2.88
  480000    3.0046054    8.3987428     2.919688    15.823085    11.545788 
  480200    3.0339579    8.3484003    3.0442537    15.941315    10.418979 
  480400    3.0151979    8.4119957    2.9522228    15.884754    11.191422 
  480600    2.9952911    8.4239081    3.0339051    15.948503    10.811995 
  480800    2.9796725    8.4594756    3.0048819    15.931631    10.941544 
  481000    2.9918211    8.3832258    2.9592317    15.827945    11.565491 
  481200    3.0030534    8.4152465    2.9125439    15.830118    10.365797 
  481400    2.9647703    8.4075636    3.0142576    15.866753     11.55513 
  481600    3.0261736    8.4520098      2.96187    15.950871    11.661562 
  481800    2.9908017    8.4766754    2.9490003    15.909635    12.156374 
  482000    2.9817789    8.4601345    2.9570541    15.887621    10.335671 
  482200     3.046562    8.4169965    2.8576593    15.842214    10.292342 
  482400    2.9502328    8.4379295    2.9499406    15.811007    10.289313 
  482600    3.0480748    8.4691838    2.9707797     16.00979    10.889178 
  482800    3.1193165    8.4944242    2.9116722    16.082732    11.973888 
  483000    3.1002919     8.424629    2.9003765    15.973118    11.586573 
  483200    3.0596898    8.4314277      3.00088    16.019548    9.4321542 
  483400    3.0407205    8.4186137    3.0545422    16.031956    10.800513 
  483600    3.0883024    8.4019653    3.0468304    16.078933    11.107432 
  483800    3.0517225    8.4789906    3.0520668    16.106352    11.533756 
  484000     3.055985     8.467005    2.9935496     16.04224    11.492725 
  484200    3.0435337    8.5055033    2.9862095    16.054731    11.659861 
  484400    3.0110668    8.4234785    3.1269349    16.064755    10.837873 
  484600    2.9770342    8.4607312    3.0224505      15.9465    9.5691504 
  484800    2.9312988    8.4429188    2.8626368    15.700305    10.012649 
  485000    2.9644702    8.4467457    2.8670579    15.758286    10.860526 
  485200     2.957624    8.4055634    2.8911802    15.730961    10.850829 
  485400       2.9115    8.3936406    2.9443073    15.703014    9.6530697 
  485600    3.0181421    8.4054129    3.0010178     15.93138    11.344194 
  485800    3.0457726    8.4098118    3.0212786    15.997465    12.123276 
  486000    3.0717259    8.3695453    2.9592573    15.934088    11.578666 
  486200    2.9068776     8.394033    3.0190887    15.771258     10.78057 
  486400    2.9487029    8.4279515    2.9998251    15.848619    10.776718 
  486600    3.0007309     8.414149    2.9540673    15.867062     11.40752 
  486800    2.9762953    8.3734864    3.0794697    15.915167     10.09976 
  487000    2.9439679    8.4391187    2.9599624    15.812825    10.531496 
  487200    2.9567417    8.4045766    2.8678841    15.705356     11.07314 
  487400    2.9378267    8.4519205    2.9307992    15.787256    10.555926 
  487600    2.9869112    8.3991008    3.0614233    15.938651     10.46099 
  487800    2.9728544    8.3850469    3.0650176    15.907116    10.754115 
  488000    2.8920668    8.4314186     3.103707    15.871057    10.185955 
  488200    2.8851911    8.4368417    3.0139952     15.77646    10.981248 
  488400    3.0550953    8.3955002    2.9431349    15.918987     10.66004 
  488600    3.0814634    8.3886786    2.9833368    15.991899    11.541056 
  488800     2.911951    8.4006744    3.1542064    15.920623    11.465369 
  489000    2.9383944    8.4740311    3.0518005    15.931219    11.828624 
  489200    3.0052506     8.406891    2.9866539    15.899167    11.502083 
  489400    3.0003816    8.4137864    3.1135291    16.025638    9.6682081 
  489600    3.0505587    8.4547687    3.0998977    16.128217    11.520583 
  489800    3.0672272    8.4674887     3.056833    16.122862    10.921528 
adapt lambda = 0.98 a0 = 2.94
  490000     3.110496    8.4017647     3.024519    16.089695    11.026083 
  490200    3.0815474    8.4255768    2.9817254    16.027312    9.7541009 
  490400    3.0611948    8.4262494     2.854733    15.870479    10.335415 
  490600    3.0152217    8.4187612     2.802717    15.742049    12.477441 
  490800    3.0231213    8.4378842    2.8871707     15.85747    10.172998 
  491000    2.9307126    8.4130148    2.9475188    15.754404    11.459369 
  491200    2.9981838    8.4547885    2.9736226    15.923438    11.185183 
  491400    2.9947523    8.3766203    2.8999501    15.766453    11.075179 
  491600    2.9658998    8.3807278    2.9892625    15.816616    10.924308 
  491800    2.9313207    8.3955595    3.0685389    15.858881    12.648077 
  492000    3.0488075    8.3919746    3.0429398    16.005839    10.814292 
  492200    2.9321559    8.4199977     3.077079    15.893111    10.769251 
  492400    3.0507017    8.3809406    3.0203911    15.975096    12.533895 
  492600    3.0216814    8.4142476    3.0524233    15.996927    11.718095 
  492800    3.0412379    8.4250282    2.9542803    15.938884    10.790817 
  493000    3.0052979     8.437729    2.9770032    15.920425    11.794383 
  493200    3.0018422    8.4547731    3.0044602    15.959745    10.416076 
  493400    3.0059816    8.4463154     3.023552    15.976585     11.28787 
  493600    3.0543102    8.4349655    3.0235729    16.037713    11.713594 
  493800    2.9411163    8.4277893    3.0749655    15.912223    11.156623 
  494000     2.980474    8.4632324    3.0640193    15.995727    10.360155 
  494200    3.0578402    8.4590663    3.0280889    16.071622    10.720311 
  494400    2.9601511    8.4541889     2.996596    15.888791    12.275119 
  494600    2.9748116    8.4122057    3.0011371    15.873329     12.09946 
  494800    2.9587061     8.382132    3.0517455    15.869718    12.241388 
  495000    2.9893617    8.4122711    3.0037524    15.897824    10.541306 
  495200     2.995607    8.4320541      3.00515    15.928368    10.780359 
  495400    3.0746192    8.3631284    2.9198336    15.892585    11.569144 
  495600    2.9779078    8.3872788    3.0022952    15.854202    11.688674 
  495800     3.081414    8.3869926    2.8607455    15.867548    10.154369 
  496000    3.1220673    8.4482636    2.9381669     16.06719    10.060867 
  496200    3.0638652    8.3921891    2.9691437    15.954833    11.779186 
  496400    2.9425266    8.4608877     3.116147    15.988618    10.479421 
  496600    2.9727524    8.3829997    3.0826935    15.922592    11.574243 
  496800    2.9426606    8.4648016    3.1075296    15.984115    10.789262 
  497000    2.9899921     8.409562    3.0266139    15.918921    11.566003 
  497200    3.0294428    8.3577315    3.0494412    15.949065    10.123286 
  497400    3.0054775     8.486453    3.0971185    16.089534    10.352286 
  497600    3.0815552    8.3926331    2.9998476    16.012502    10.481733 
  497800    3.0294727    8.4252174    3.1297223    16.096877    10.716558 
  498000    2.9985146       8.4514    3.1014921    16.048415     10.86869 
  498200    3.0728484    8.4449018    2.9899964    16.041866    11.353621 
  498400    2.9598242    8.4940924    3.1640397    16.095649    11.024709 
  498600    2.9251527    8.4425536    3.1035896    15.931678     10.86461 
  498800    3.0993852    8.4304589    3.0283212    16.105533     11.41019 
  499000    3.0494617    8.4938802    3.0589877    16.124773     10.02771 
  499200    2.9932531    8.4840736    3.0995914      16.0713    12.729729 
  499400    3.0227365    8.3942054    3.1071575    16.033201    11.524818 
  499600    2.9599733    8.4198511    3.0482995    15.905891    10.598353 
  499800     2.994843    8.3864292    2.9470762    15.823524    11.155758 
adapt lambda = 1 a0 = 3
  500000    2.9363723    8.4647108    2.9930126     15.86008    10.461405 
Loop time of 6575.91 on 1 procs for 500000 steps with 2000 atoms

Performance: 6569.430 tau/day, 76.035 timesteps/s
96.0% CPU use with 1 MPI tasks x 1 OpenMP threads

MPI task timing breakdown:
Section |  min time  |  avg time  |  max time  |%varavg| %total
---------------------------------------------------------------
Pair    | 5955       | 5955       | 5955       |   0.0 | 90.56
Bond    | 160.23     | 160.23     | 160.23     |   0.0 |  2.44
Neigh   | 280.31     | 280.31     | 280.31     |   0.0 |  4.26
Comm    | 101.25     | 101.25     | 101.25     |   0.0 |  1.54
Output  | 2.315      | 2.315      | 2.315      |   0.0 |  0.04
Modify  | 49.865     | 49.865     | 49.865     |   0.0 |  0.76
Other   |            | 26.98      |            |       |  0.41

Nlocal:    2000 ave 2000 max 2000 min
Histogram: 1 0 0 0 0 0 0 0 0 0
Nghost:    3468 ave 3468 max 3468 min
Histogram: 1 0 0 0 0 0 0 0 0 0
Neighs:    64094 ave 64094 max 64094 min
Histogram: 1 0 0 0 0 0 0 0 0 0

Total # of neighbors = 64094
Ave neighs/atom = 32.047
Ave special neighs/atom = 3.6
Neighbor list builds = 33139
Dangerous builds = 1


# ----------------- Run Section -----------------

# The lines above define the system you want to simulate.
# What you do next is up to you.
# Typically a user would minimize and equilibrate
# the system using commands similar to the following:
#  ----   examples   ----
#
#  -- minimize --
# minimize 1.0e-5 1.0e-7 1000 10000
# (Note: Some fixes, for example "shake", interfere with the minimize command,
#        You can use the "unfix" command to disable them before minimization.)
#  -- declare time step for normal MD --
# timestep 1.0
#  -- run at constant pressure (Nose-Hoover)--
# fix   fxnpt all npt temp 300.0 300.0 100.0 iso 1.0 1.0 1000.0 drag 1.0
#  -- ALTERNATELY, run at constant volume (Nose-Hoover) --
# fix   fxnvt all nvt temp 300.0 300.0 500.0 tchain 1
#  -- ALTERNATELY, run at constant volume using Langevin dynamics. --
#  -- (This is good for sparse CG polymers in implicit solvent.)   --
# fix fxLAN all langevin 300.0 300.0 5000 48279
# fix fxNVE all nve  #(<--needed by fix langevin)
#  -- Now, finally run the simulation --
# run   50000
#  ---- (end of examples) ----

Total wall time: 1:52:58
