LAMMPS (7 Aug 2019)


# ----------------- Init Section -----------------

include "system.in.init"
        units lj
        atom_style full
        pair_style hybrid lj/cut/soft 2 0.5 3.0
        bond_style hybrid harmonic
        angle_style hybrid harmonic
        special_bonds lj 0.0 0.0 0.0


# ----------------- Atom Definition Section -----------------

read_data "system.data"
  orthogonal box = (0 0 0) to (10 10 10)
  1 by 1 by 1 MPI processor grid
  reading atoms ...
  1001 atoms
  0 = max # of 1-2 neighbors
  0 = max # of 1-3 neighbors
  0 = max # of 1-4 neighbors
  1 = max # of special neighbors
  special bonds CPU = 0.003457 secs
  read_data CPU = 0.036714 secs

# ----------------- Settings Section -----------------

include "system.in.settings"
        pair_coeff 1 1 lj/cut/soft 5 1.0 1.0
        pair_coeff 2 2 lj/cut/soft 5 1.0 0.0

pair_coeff 1 2 lj/cut/soft 20 1.0 0.0

        bond_coeff 1 harmonic 1000 0.4

        angle_coeff 1 harmonic 20 180
        angle_coeff 2 harmonic 20 180
        angle_coeff 3 harmonic 20 180
        angle_coeff 4 harmonic 20 180
        angle_coeff 5 harmonic 20 180
        angle_coeff 6 harmonic 20 180
        angle_coeff 7 harmonic 20 180
        angle_coeff 8 harmonic 20 180


# ----------------- Run Section -----------------

include "system.in.run"
  dump dxyz all atom 1000 poly.lammpstrj

  variable TK equal 3.0
  variable PBAR equal 1.0
  thermo_style multi
  thermo   200
  timestep 0.001
  neighbor 2.0 bin
  minimize 1.0e-6 1.0e-8 10000 100000
WARNING: Using 'neigh_modify every 1 delay 0 check yes' setting during minimization (src/min.cpp:168)
Neighbor list info ...
  update every 1 steps, delay 0 steps, check yes
  max neighbors/atom: 2000, page size: 100000
  master list distance cutoff = 5
  ghost atom cutoff = 5
  binsize = 2.5, bins = 4 4 4
  1 neighbor lists, perpetual/occasional/extra = 1 0 0
  (1) pair lj/cut/soft, perpetual
      attributes: half, newton on
      pair build: half/bin/newton
      stencil: half/bin/3d/newton
      bin: standard
Per MPI rank memory allocation (min/avg/max) = 9.176 | 9.176 | 9.176 Mbytes
---------------- Step        0 ----- CPU =      0.0000 (sec) ----------------
TotEng   =       -20.1255 KinEng   =         0.0000 Temp     =         0.0000 
PotEng   =       -20.1255 E_bond   =         0.0000 E_angle  =         0.0000 
E_dihed  =         0.0000 E_impro  =         0.0000 E_vdwl   =       -20.1255 
E_coul   =         0.0000 E_long   =         0.0000 Press    =        83.7495 
---------------- Step        6 ----- CPU =      0.3423 (sec) ----------------
TotEng   =       -20.3342 KinEng   =         0.0000 Temp     =         0.0000 
PotEng   =       -20.3342 E_bond   =         0.0000 E_angle  =         0.0000 
E_dihed  =         0.0000 E_impro  =         0.0000 E_vdwl   =       -20.3342 
E_coul   =         0.0000 E_long   =         0.0000 Press    =        83.3322 
Loop time of 0.342805 on 1 procs for 6 steps with 1001 atoms

95.7% CPU use with 1 MPI tasks x no OpenMP threads

Minimization stats:
  Stopping criterion = energy tolerance
  Energy initial, next-to-last, final = 
         -20.125473997     -20.3342077558     -20.3342089289
  Force two-norm initial, final = 6.47082e-13 13.6079
  Force max component initial, final = 4.44089e-14 0.910679
  Final line search alpha, max atom move = 5.29521e-06 4.82224e-06
  Iterations, force evaluations = 6 37

MPI task timing breakdown:
Section |  min time  |  avg time  |  max time  |%varavg| %total
---------------------------------------------------------------
Pair    | 0.33092    | 0.33092    | 0.33092    |   0.0 | 96.53
Bond    | 0.000253   | 0.000253   | 0.000253   |   0.0 |  0.07
Neigh   | 0          | 0          | 0          |   0.0 |  0.00
Comm    | 0.007029   | 0.007029   | 0.007029   |   0.0 |  2.05
Output  | 0          | 0          | 0          |   0.0 |  0.00
Modify  | 0          | 0          | 0          |   0.0 |  0.00
Other   |            | 0.0046     |            |       |  1.34

Nlocal:    1001 ave 1001 max 1001 min
Histogram: 1 0 0 0 0 0 0 0 0 0
Nghost:    8268 ave 8268 max 8268 min
Histogram: 1 0 0 0 0 0 0 0 0 0
Neighs:    257498 ave 257498 max 257498 min
Histogram: 1 0 0 0 0 0 0 0 0 0

Total # of neighbors = 257498
Ave neighs/atom = 257.241
Ave special neighs/atom = 0
Neighbor list builds = 0
Dangerous builds = 0

  velocity        all create 3.0 49840
  fix TSTAT all nvt temp 3.0 3.0 100
  run 100000
Per MPI rank memory allocation (min/avg/max) = 8.051 | 8.051 | 8.051 Mbytes
---------------- Step        6 ----- CPU =      0.0000 (sec) ----------------
TotEng   =       -15.8387 KinEng   =         4.4955 Temp     =         3.0000 
PotEng   =       -20.3342 E_bond   =         0.0000 E_angle  =         0.0000 
E_dihed  =         0.0000 E_impro  =         0.0000 E_vdwl   =       -20.3342 
E_coul   =         0.0000 E_long   =         0.0000 Press    =        86.3322 
---------------- Step      200 ----- CPU =      1.6002 (sec) ----------------
TotEng   =       -15.9184 KinEng   =        10.7941 Temp     =         7.2033 
PotEng   =       -26.7125 E_bond   =         0.0000 E_angle  =         0.0000 
E_dihed  =         0.0000 E_impro  =         0.0000 E_vdwl   =       -26.7125 
E_coul   =         0.0000 E_long   =         0.0000 Press    =        60.6365 
---------------- Step      400 ----- CPU =      3.3438 (sec) ----------------
TotEng   =       -15.9253 KinEng   =        10.8764 Temp     =         7.2582 
PotEng   =       -26.8017 E_bond   =         0.0000 E_angle  =         0.0000 
E_dihed  =         0.0000 E_impro  =         0.0000 E_vdwl   =       -26.8017 
E_coul   =         0.0000 E_long   =         0.0000 Press    =        60.5251 
---------------- Step      600 ----- CPU =      5.0726 (sec) ----------------
TotEng   =       -15.9242 KinEng   =        11.1193 Temp     =         7.4203 
PotEng   =       -27.0435 E_bond   =         0.0000 E_angle  =         0.0000 
E_dihed  =         0.0000 E_impro  =         0.0000 E_vdwl   =       -27.0435 
E_coul   =         0.0000 E_long   =         0.0000 Press    =        59.0270 
---------------- Step      800 ----- CPU =      6.7337 (sec) ----------------
TotEng   =       -15.9269 KinEng   =        10.9478 Temp     =         7.3058 
PotEng   =       -26.8747 E_bond   =         0.0000 E_angle  =         0.0000 
E_dihed  =         0.0000 E_impro  =         0.0000 E_vdwl   =       -26.8747 
E_coul   =         0.0000 E_long   =         0.0000 Press    =        60.0088 
---------------- Step     1000 ----- CPU =      8.5751 (sec) ----------------
TotEng   =       -15.9248 KinEng   =        10.9304 Temp     =         7.2942 
PotEng   =       -26.8551 E_bond   =         0.0000 E_angle  =         0.0000 
E_dihed  =         0.0000 E_impro  =         0.0000 E_vdwl   =       -26.8551 
E_coul   =         0.0000 E_long   =         0.0000 Press    =        60.2571 
---------------- Step     1200 ----- CPU =     10.3843 (sec) ----------------
TotEng   =       -15.9228 KinEng   =        10.8693 Temp     =         7.2535 
PotEng   =       -26.7922 E_bond   =         0.0000 E_angle  =         0.0000 
E_dihed  =         0.0000 E_impro  =         0.0000 E_vdwl   =       -26.7922 
E_coul   =         0.0000 E_long   =         0.0000 Press    =        60.5547 
---------------- Step     1400 ----- CPU =     12.5508 (sec) ----------------
TotEng   =       -15.9256 KinEng   =        11.1090 Temp     =         7.4134 
PotEng   =       -27.0346 E_bond   =         0.0000 E_angle  =         0.0000 
E_dihed  =         0.0000 E_impro  =         0.0000 E_vdwl   =       -27.0346 
E_coul   =         0.0000 E_long   =         0.0000 Press    =        59.2349 
---------------- Step     1600 ----- CPU =     14.7867 (sec) ----------------
TotEng   =       -15.9289 KinEng   =        11.1021 Temp     =         7.4088 
PotEng   =       -27.0310 E_bond   =         0.0000 E_angle  =         0.0000 
E_dihed  =         0.0000 E_impro  =         0.0000 E_vdwl   =       -27.0310 
E_coul   =         0.0000 E_long   =         0.0000 Press    =        59.4267 
---------------- Step     1800 ----- CPU =     17.9820 (sec) ----------------
TotEng   =       -15.9294 KinEng   =        11.1592 Temp     =         7.4469 
PotEng   =       -27.0887 E_bond   =         0.0000 E_angle  =         0.0000 
E_dihed  =         0.0000 E_impro  =         0.0000 E_vdwl   =       -27.0887 
E_coul   =         0.0000 E_long   =         0.0000 Press    =        58.9393 
---------------- Step     2000 ----- CPU =     21.3448 (sec) ----------------
TotEng   =       -15.9297 KinEng   =        10.8264 Temp     =         7.2248 
PotEng   =       -26.7561 E_bond   =         0.0000 E_angle  =         0.0000 
E_dihed  =         0.0000 E_impro  =         0.0000 E_vdwl   =       -26.7561 
E_coul   =         0.0000 E_long   =         0.0000 Press    =        60.5760 
---------------- Step     2200 ----- CPU =     23.8628 (sec) ----------------
TotEng   =       -15.9283 KinEng   =        11.1152 Temp     =         7.4175 
PotEng   =       -27.0435 E_bond   =         0.0000 E_angle  =         0.0000 
E_dihed  =         0.0000 E_impro  =         0.0000 E_vdwl   =       -27.0435 
E_coul   =         0.0000 E_long   =         0.0000 Press    =        59.0971 
---------------- Step     2400 ----- CPU =     27.6716 (sec) ----------------
TotEng   =       -15.9290 KinEng   =        11.0267 Temp     =         7.3585 
PotEng   =       -26.9557 E_bond   =         0.0000 E_angle  =         0.0000 
E_dihed  =         0.0000 E_impro  =         0.0000 E_vdwl   =       -26.9557 
E_coul   =         0.0000 E_long   =         0.0000 Press    =        59.6478 
---------------- Step     2600 ----- CPU =     30.6764 (sec) ----------------
TotEng   =       -15.9352 KinEng   =        10.6389 Temp     =         7.0997 
PotEng   =       -26.5741 E_bond   =         0.0000 E_angle  =         0.0000 
E_dihed  =         0.0000 E_impro  =         0.0000 E_vdwl   =       -26.5741 
E_coul   =         0.0000 E_long   =         0.0000 Press    =        61.1692 
---------------- Step     2800 ----- CPU =     33.1940 (sec) ----------------
TotEng   =       -15.9377 KinEng   =        10.8237 Temp     =         7.2230 
PotEng   =       -26.7613 E_bond   =         0.0000 E_angle  =         0.0000 
E_dihed  =         0.0000 E_impro  =         0.0000 E_vdwl   =       -26.7613 
E_coul   =         0.0000 E_long   =         0.0000 Press    =        60.7795 
---------------- Step     3000 ----- CPU =     35.3047 (sec) ----------------
TotEng   =       -15.9378 KinEng   =        11.0019 Temp     =         7.3419 
PotEng   =       -26.9396 E_bond   =         0.0000 E_angle  =         0.0000 
E_dihed  =         0.0000 E_impro  =         0.0000 E_vdwl   =       -26.9396 
E_coul   =         0.0000 E_long   =         0.0000 Press    =        59.7880 
---------------- Step     3200 ----- CPU =     37.8726 (sec) ----------------
TotEng   =       -15.9368 KinEng   =        10.6165 Temp     =         7.0847 
PotEng   =       -26.5533 E_bond   =         0.0000 E_angle  =         0.0000 
E_dihed  =         0.0000 E_impro  =         0.0000 E_vdwl   =       -26.5533 
E_coul   =         0.0000 E_long   =         0.0000 Press    =        61.5833 
---------------- Step     3400 ----- CPU =     42.5629 (sec) ----------------
TotEng   =       -15.9402 KinEng   =        10.8431 Temp     =         7.2360 
PotEng   =       -26.7834 E_bond   =         0.0000 E_angle  =         0.0000 
E_dihed  =         0.0000 E_impro  =         0.0000 E_vdwl   =       -26.7834 
E_coul   =         0.0000 E_long   =         0.0000 Press    =        60.4720 
---------------- Step     3600 ----- CPU =     45.1548 (sec) ----------------
TotEng   =       -15.9401 KinEng   =        10.9097 Temp     =         7.2804 
PotEng   =       -26.8499 E_bond   =         0.0000 E_angle  =         0.0000 
E_dihed  =         0.0000 E_impro  =         0.0000 E_vdwl   =       -26.8499 
E_coul   =         0.0000 E_long   =         0.0000 Press    =        60.2005 
---------------- Step     3800 ----- CPU =     47.0374 (sec) ----------------
TotEng   =       -15.9429 KinEng   =        10.8174 Temp     =         7.2188 
PotEng   =       -26.7603 E_bond   =         0.0000 E_angle  =         0.0000 
E_dihed  =         0.0000 E_impro  =         0.0000 E_vdwl   =       -26.7603 
E_coul   =         0.0000 E_long   =         0.0000 Press    =        60.4503 
---------------- Step     4000 ----- CPU =     49.0619 (sec) ----------------
TotEng   =       -15.9485 KinEng   =        11.0854 Temp     =         7.3977 
PotEng   =       -27.0339 E_bond   =         0.0000 E_angle  =         0.0000 
E_dihed  =         0.0000 E_impro  =         0.0000 E_vdwl   =       -27.0339 
E_coul   =         0.0000 E_long   =         0.0000 Press    =        59.3174 
---------------- Step     4200 ----- CPU =     51.3766 (sec) ----------------
TotEng   =       -15.9539 KinEng   =        10.8450 Temp     =         7.2372 
PotEng   =       -26.7989 E_bond   =         0.0000 E_angle  =         0.0000 
E_dihed  =         0.0000 E_impro  =         0.0000 E_vdwl   =       -26.7989 
E_coul   =         0.0000 E_long   =         0.0000 Press    =        60.0171 
---------------- Step     4400 ----- CPU =     53.5496 (sec) ----------------
TotEng   =       -15.9554 KinEng   =        10.9643 Temp     =         7.3168 
PotEng   =       -26.9197 E_bond   =         0.0000 E_angle  =         0.0000 
E_dihed  =         0.0000 E_impro  =         0.0000 E_vdwl   =       -26.9197 
E_coul   =         0.0000 E_long   =         0.0000 Press    =        59.9740 
---------------- Step     4600 ----- CPU =     55.7936 (sec) ----------------
TotEng   =       -15.9530 KinEng   =        10.8116 Temp     =         7.2149 
PotEng   =       -26.7646 E_bond   =         0.0000 E_angle  =         0.0000 
E_dihed  =         0.0000 E_impro  =         0.0000 E_vdwl   =       -26.7646 
E_coul   =         0.0000 E_long   =         0.0000 Press    =        60.2936 
---------------- Step     4800 ----- CPU =     57.5663 (sec) ----------------
TotEng   =       -15.9582 KinEng   =        10.9087 Temp     =         7.2798 
PotEng   =       -26.8669 E_bond   =         0.0000 E_angle  =         0.0000 
E_dihed  =         0.0000 E_impro  =         0.0000 E_vdwl   =       -26.8669 
E_coul   =         0.0000 E_long   =         0.0000 Press    =        60.0583 
---------------- Step     5000 ----- CPU =     59.6566 (sec) ----------------
TotEng   =       -15.9628 KinEng   =        10.9708 Temp     =         7.3212 
PotEng   =       -26.9336 E_bond   =         0.0000 E_angle  =         0.0000 
E_dihed  =         0.0000 E_impro  =         0.0000 E_vdwl   =       -26.9336 
E_coul   =         0.0000 E_long   =         0.0000 Press    =        59.7726 
---------------- Step     5200 ----- CPU =     61.3455 (sec) ----------------
TotEng   =       -15.9644 KinEng   =        10.8902 Temp     =         7.2674 
PotEng   =       -26.8545 E_bond   =         0.0000 E_angle  =         0.0000 
E_dihed  =         0.0000 E_impro  =         0.0000 E_vdwl   =       -26.8545 
E_coul   =         0.0000 E_long   =         0.0000 Press    =        59.8625 
---------------- Step     5400 ----- CPU =     63.4954 (sec) ----------------
TotEng   =       -15.9668 KinEng   =        10.8322 Temp     =         7.2287 
PotEng   =       -26.7990 E_bond   =         0.0000 E_angle  =         0.0000 
E_dihed  =         0.0000 E_impro  =         0.0000 E_vdwl   =       -26.7990 
E_coul   =         0.0000 E_long   =         0.0000 Press    =        60.2219 
---------------- Step     5600 ----- CPU =     67.0721 (sec) ----------------
TotEng   =       -15.9734 KinEng   =        11.2641 Temp     =         7.5169 
PotEng   =       -27.2375 E_bond   =         0.0000 E_angle  =         0.0000 
E_dihed  =         0.0000 E_impro  =         0.0000 E_vdwl   =       -27.2375 
E_coul   =         0.0000 E_long   =         0.0000 Press    =        58.2414 
---------------- Step     5800 ----- CPU =     69.4949 (sec) ----------------
TotEng   =       -15.9723 KinEng   =        10.8772 Temp     =         7.2587 
PotEng   =       -26.8495 E_bond   =         0.0000 E_angle  =         0.0000 
E_dihed  =         0.0000 E_impro  =         0.0000 E_vdwl   =       -26.8495 
E_coul   =         0.0000 E_long   =         0.0000 Press    =        60.0134 
---------------- Step     6000 ----- CPU =     71.9837 (sec) ----------------
TotEng   =       -15.9786 KinEng   =        10.8803 Temp     =         7.2608 
PotEng   =       -26.8590 E_bond   =         0.0000 E_angle  =         0.0000 
E_dihed  =         0.0000 E_impro  =         0.0000 E_vdwl   =       -26.8590 
E_coul   =         0.0000 E_long   =         0.0000 Press    =        60.0168 
---------------- Step     6200 ----- CPU =     74.3849 (sec) ----------------
TotEng   =       -15.9828 KinEng   =        11.0985 Temp     =         7.4064 
PotEng   =       -27.0813 E_bond   =         0.0000 E_angle  =         0.0000 
E_dihed  =         0.0000 E_impro  =         0.0000 E_vdwl   =       -27.0813 
E_coul   =         0.0000 E_long   =         0.0000 Press    =        59.1844 
---------------- Step     6400 ----- CPU =     76.1888 (sec) ----------------
TotEng   =       -15.9869 KinEng   =        10.9243 Temp     =         7.2902 
PotEng   =       -26.9112 E_bond   =         0.0000 E_angle  =         0.0000 
E_dihed  =         0.0000 E_impro  =         0.0000 E_vdwl   =       -26.9112 
E_coul   =         0.0000 E_long   =         0.0000 Press    =        59.7392 
---------------- Step     6600 ----- CPU =     78.0598 (sec) ----------------
TotEng   =       -15.9916 KinEng   =        11.1443 Temp     =         7.4370 
PotEng   =       -27.1359 E_bond   =         0.0000 E_angle  =         0.0000 
E_dihed  =         0.0000 E_impro  =         0.0000 E_vdwl   =       -27.1359 
E_coul   =         0.0000 E_long   =         0.0000 Press    =        58.7911 
---------------- Step     6800 ----- CPU =     80.0218 (sec) ----------------
TotEng   =       -15.9950 KinEng   =        10.9122 Temp     =         7.2821 
PotEng   =       -26.9072 E_bond   =         0.0000 E_angle  =         0.0000 
E_dihed  =         0.0000 E_impro  =         0.0000 E_vdwl   =       -26.9072 
E_coul   =         0.0000 E_long   =         0.0000 Press    =        59.6300 
---------------- Step     7000 ----- CPU =     82.0227 (sec) ----------------
TotEng   =       -15.9996 KinEng   =        11.0796 Temp     =         7.3938 
PotEng   =       -27.0792 E_bond   =         0.0000 E_angle  =         0.0000 
E_dihed  =         0.0000 E_impro  =         0.0000 E_vdwl   =       -27.0792 
E_coul   =         0.0000 E_long   =         0.0000 Press    =        58.9217 
---------------- Step     7200 ----- CPU =     83.8825 (sec) ----------------
TotEng   =       -16.0076 KinEng   =        10.8293 Temp     =         7.2268 
PotEng   =       -26.8370 E_bond   =         0.0000 E_angle  =         0.0000 
E_dihed  =         0.0000 E_impro  =         0.0000 E_vdwl   =       -26.8370 
E_coul   =         0.0000 E_long   =         0.0000 Press    =        60.2392 
---------------- Step     7400 ----- CPU =     85.5780 (sec) ----------------
TotEng   =       -16.0099 KinEng   =        10.8539 Temp     =         7.2432 
PotEng   =       -26.8638 E_bond   =         0.0000 E_angle  =         0.0000 
E_dihed  =         0.0000 E_impro  =         0.0000 E_vdwl   =       -26.8638 
E_coul   =         0.0000 E_long   =         0.0000 Press    =        59.9253 
---------------- Step     7600 ----- CPU =     87.5857 (sec) ----------------
TotEng   =       -16.0092 KinEng   =        10.8309 Temp     =         7.2278 
PotEng   =       -26.8401 E_bond   =         0.0000 E_angle  =         0.0000 
E_dihed  =         0.0000 E_impro  =         0.0000 E_vdwl   =       -26.8401 
E_coul   =         0.0000 E_long   =         0.0000 Press    =        60.1437 
---------------- Step     7800 ----- CPU =     89.4871 (sec) ----------------
TotEng   =       -16.0196 KinEng   =        11.0332 Temp     =         7.3628 
PotEng   =       -27.0528 E_bond   =         0.0000 E_angle  =         0.0000 
E_dihed  =         0.0000 E_impro  =         0.0000 E_vdwl   =       -27.0528 
E_coul   =         0.0000 E_long   =         0.0000 Press    =        59.2975 
---------------- Step     8000 ----- CPU =     91.5952 (sec) ----------------
TotEng   =       -16.0250 KinEng   =        11.2382 Temp     =         7.4997 
PotEng   =       -27.2632 E_bond   =         0.0000 E_angle  =         0.0000 
E_dihed  =         0.0000 E_impro  =         0.0000 E_vdwl   =       -27.2632 
E_coul   =         0.0000 E_long   =         0.0000 Press    =        58.4813 
---------------- Step     8200 ----- CPU =     93.3750 (sec) ----------------
TotEng   =       -16.0261 KinEng   =        10.8622 Temp     =         7.2487 
PotEng   =       -26.8883 E_bond   =         0.0000 E_angle  =         0.0000 
E_dihed  =         0.0000 E_impro  =         0.0000 E_vdwl   =       -26.8883 
E_coul   =         0.0000 E_long   =         0.0000 Press    =        59.8282 
---------------- Step     8400 ----- CPU =     95.2525 (sec) ----------------
TotEng   =       -16.0313 KinEng   =        10.8396 Temp     =         7.2336 
PotEng   =       -26.8709 E_bond   =         0.0000 E_angle  =         0.0000 
E_dihed  =         0.0000 E_impro  =         0.0000 E_vdwl   =       -26.8709 
E_coul   =         0.0000 E_long   =         0.0000 Press    =        59.8497 
---------------- Step     8600 ----- CPU =     96.9671 (sec) ----------------
TotEng   =       -16.0419 KinEng   =        11.1759 Temp     =         7.4581 
PotEng   =       -27.2179 E_bond   =         0.0000 E_angle  =         0.0000 
E_dihed  =         0.0000 E_impro  =         0.0000 E_vdwl   =       -27.2179 
E_coul   =         0.0000 E_long   =         0.0000 Press    =        58.6723 
---------------- Step     8800 ----- CPU =     98.8512 (sec) ----------------
TotEng   =       -16.0440 KinEng   =        10.8050 Temp     =         7.2106 
PotEng   =       -26.8491 E_bond   =         0.0000 E_angle  =         0.0000 
E_dihed  =         0.0000 E_impro  =         0.0000 E_vdwl   =       -26.8491 
E_coul   =         0.0000 E_long   =         0.0000 Press    =        59.9598 
---------------- Step     9000 ----- CPU =    100.6866 (sec) ----------------
TotEng   =       -16.0490 KinEng   =        10.9687 Temp     =         7.3197 
PotEng   =       -27.0177 E_bond   =         0.0000 E_angle  =         0.0000 
E_dihed  =         0.0000 E_impro  =         0.0000 E_vdwl   =       -27.0177 
E_coul   =         0.0000 E_long   =         0.0000 Press    =        59.5591 
---------------- Step     9200 ----- CPU =    102.4056 (sec) ----------------
TotEng   =       -16.0559 KinEng   =        10.6915 Temp     =         7.1348 
PotEng   =       -26.7475 E_bond   =         0.0000 E_angle  =         0.0000 
E_dihed  =         0.0000 E_impro  =         0.0000 E_vdwl   =       -26.7475 
E_coul   =         0.0000 E_long   =         0.0000 Press    =        60.6732 
---------------- Step     9400 ----- CPU =    104.7696 (sec) ----------------
TotEng   =       -16.0631 KinEng   =        11.0605 Temp     =         7.3810 
PotEng   =       -27.1236 E_bond   =         0.0000 E_angle  =         0.0000 
E_dihed  =         0.0000 E_impro  =         0.0000 E_vdwl   =       -27.1236 
E_coul   =         0.0000 E_long   =         0.0000 Press    =        59.0970 
---------------- Step     9600 ----- CPU =    108.6594 (sec) ----------------
TotEng   =       -16.0662 KinEng   =        10.8627 Temp     =         7.2490 
PotEng   =       -26.9288 E_bond   =         0.0000 E_angle  =         0.0000 
E_dihed  =         0.0000 E_impro  =         0.0000 E_vdwl   =       -26.9288 
E_coul   =         0.0000 E_long   =         0.0000 Press    =        59.5653 
---------------- Step     9800 ----- CPU =    110.8961 (sec) ----------------
TotEng   =       -16.0737 KinEng   =        11.0900 Temp     =         7.4007 
PotEng   =       -27.1637 E_bond   =         0.0000 E_angle  =         0.0000 
E_dihed  =         0.0000 E_impro  =         0.0000 E_vdwl   =       -27.1637 
E_coul   =         0.0000 E_long   =         0.0000 Press    =        58.8261 
---------------- Step    10000 ----- CPU =    113.2020 (sec) ----------------
TotEng   =       -16.0788 KinEng   =        11.1498 Temp     =         7.4406 
PotEng   =       -27.2286 E_bond   =         0.0000 E_angle  =         0.0000 
E_dihed  =         0.0000 E_impro  =         0.0000 E_vdwl   =       -27.2286 
E_coul   =         0.0000 E_long   =         0.0000 Press    =        58.7238 
---------------- Step    10200 ----- CPU =    115.6334 (sec) ----------------
TotEng   =       -16.0838 KinEng   =        10.9361 Temp     =         7.2981 
PotEng   =       -27.0200 E_bond   =         0.0000 E_angle  =         0.0000 
E_dihed  =         0.0000 E_impro  =         0.0000 E_vdwl   =       -27.0200 
E_coul   =         0.0000 E_long   =         0.0000 Press    =        59.5101 
---------------- Step    10400 ----- CPU =    117.5539 (sec) ----------------
TotEng   =       -16.0896 KinEng   =        11.1992 Temp     =         7.4736 
PotEng   =       -27.2888 E_bond   =         0.0000 E_angle  =         0.0000 
E_dihed  =         0.0000 E_impro  =         0.0000 E_vdwl   =       -27.2888 
E_coul   =         0.0000 E_long   =         0.0000 Press    =        57.8531 
---------------- Step    10600 ----- CPU =    119.4377 (sec) ----------------
TotEng   =       -16.0970 KinEng   =        10.6716 Temp     =         7.1215 
PotEng   =       -26.7686 E_bond   =         0.0000 E_angle  =         0.0000 
E_dihed  =         0.0000 E_impro  =         0.0000 E_vdwl   =       -26.7686 
E_coul   =         0.0000 E_long   =         0.0000 Press    =        60.2423 
---------------- Step    10800 ----- CPU =    121.3249 (sec) ----------------
TotEng   =       -16.1002 KinEng   =        10.9033 Temp     =         7.2761 
PotEng   =       -27.0035 E_bond   =         0.0000 E_angle  =         0.0000 
E_dihed  =         0.0000 E_impro  =         0.0000 E_vdwl   =       -27.0035 
E_coul   =         0.0000 E_long   =         0.0000 Press    =        59.6135 
---------------- Step    11000 ----- CPU =    124.5918 (sec) ----------------
TotEng   =       -16.1025 KinEng   =        10.7260 Temp     =         7.1578 
PotEng   =       -26.8285 E_bond   =         0.0000 E_angle  =         0.0000 
E_dihed  =         0.0000 E_impro  =         0.0000 E_vdwl   =       -26.8285 
E_coul   =         0.0000 E_long   =         0.0000 Press    =        59.9108 
---------------- Step    11200 ----- CPU =    126.8843 (sec) ----------------
TotEng   =       -16.1160 KinEng   =        10.7512 Temp     =         7.1747 
PotEng   =       -26.8672 E_bond   =         0.0000 E_angle  =         0.0000 
E_dihed  =         0.0000 E_impro  =         0.0000 E_vdwl   =       -26.8672 
E_coul   =         0.0000 E_long   =         0.0000 Press    =        59.9209 
---------------- Step    11400 ----- CPU =    131.7956 (sec) ----------------
TotEng   =       -16.1231 KinEng   =        11.0003 Temp     =         7.3409 
PotEng   =       -27.1234 E_bond   =         0.0000 E_angle  =         0.0000 
E_dihed  =         0.0000 E_impro  =         0.0000 E_vdwl   =       -27.1234 
E_coul   =         0.0000 E_long   =         0.0000 Press    =        58.9402 
---------------- Step    11600 ----- CPU =    135.6363 (sec) ----------------
TotEng   =       -16.1314 KinEng   =        10.8651 Temp     =         7.2507 
PotEng   =       -26.9965 E_bond   =         0.0000 E_angle  =         0.0000 
E_dihed  =         0.0000 E_impro  =         0.0000 E_vdwl   =       -26.9965 
E_coul   =         0.0000 E_long   =         0.0000 Press    =        59.1173 
---------------- Step    11800 ----- CPU =    138.4736 (sec) ----------------
TotEng   =       -16.1353 KinEng   =        10.9318 Temp     =         7.2952 
PotEng   =       -27.0671 E_bond   =         0.0000 E_angle  =         0.0000 
E_dihed  =         0.0000 E_impro  =         0.0000 E_vdwl   =       -27.0671 
E_coul   =         0.0000 E_long   =         0.0000 Press    =        58.8903 
---------------- Step    12000 ----- CPU =    140.7004 (sec) ----------------
TotEng   =       -16.1388 KinEng   =        10.6092 Temp     =         7.0799 
PotEng   =       -26.7479 E_bond   =         0.0000 E_angle  =         0.0000 
E_dihed  =         0.0000 E_impro  =         0.0000 E_vdwl   =       -26.7479 
E_coul   =         0.0000 E_long   =         0.0000 Press    =        60.6768 
---------------- Step    12200 ----- CPU =    142.4959 (sec) ----------------
TotEng   =       -16.1452 KinEng   =        10.8290 Temp     =         7.2265 
PotEng   =       -26.9742 E_bond   =         0.0000 E_angle  =         0.0000 
E_dihed  =         0.0000 E_impro  =         0.0000 E_vdwl   =       -26.9742 
E_coul   =         0.0000 E_long   =         0.0000 Press    =        59.2567 
---------------- Step    12400 ----- CPU =    144.7393 (sec) ----------------
TotEng   =       -16.1556 KinEng   =        10.6856 Temp     =         7.1309 
PotEng   =       -26.8412 E_bond   =         0.0000 E_angle  =         0.0000 
E_dihed  =         0.0000 E_impro  =         0.0000 E_vdwl   =       -26.8412 
E_coul   =         0.0000 E_long   =         0.0000 Press    =        59.7078 
---------------- Step    12600 ----- CPU =    146.8645 (sec) ----------------
TotEng   =       -16.1637 KinEng   =        10.9044 Temp     =         7.2769 
PotEng   =       -27.0681 E_bond   =         0.0000 E_angle  =         0.0000 
E_dihed  =         0.0000 E_impro  =         0.0000 E_vdwl   =       -27.0681 
E_coul   =         0.0000 E_long   =         0.0000 Press    =        58.8788 
---------------- Step    12800 ----- CPU =    148.8275 (sec) ----------------
TotEng   =       -16.1707 KinEng   =        11.1366 Temp     =         7.4318 
PotEng   =       -27.3073 E_bond   =         0.0000 E_angle  =         0.0000 
E_dihed  =         0.0000 E_impro  =         0.0000 E_vdwl   =       -27.3073 
E_coul   =         0.0000 E_long   =         0.0000 Press    =        58.1966 
---------------- Step    13000 ----- CPU =    150.8833 (sec) ----------------
TotEng   =       -16.1793 KinEng   =        11.0543 Temp     =         7.3769 
PotEng   =       -27.2336 E_bond   =         0.0000 E_angle  =         0.0000 
E_dihed  =         0.0000 E_impro  =         0.0000 E_vdwl   =       -27.2336 
E_coul   =         0.0000 E_long   =         0.0000 Press    =        58.4581 
---------------- Step    13200 ----- CPU =    152.6513 (sec) ----------------
TotEng   =       -16.1829 KinEng   =        10.8023 Temp     =         7.2087 
PotEng   =       -26.9851 E_bond   =         0.0000 E_angle  =         0.0000 
E_dihed  =         0.0000 E_impro  =         0.0000 E_vdwl   =       -26.9851 
E_coul   =         0.0000 E_long   =         0.0000 Press    =        59.3384 
---------------- Step    13400 ----- CPU =    154.3720 (sec) ----------------
TotEng   =       -16.1907 KinEng   =        10.6978 Temp     =         7.1390 
PotEng   =       -26.8885 E_bond   =         0.0000 E_angle  =         0.0000 
E_dihed  =         0.0000 E_impro  =         0.0000 E_vdwl   =       -26.8885 
E_coul   =         0.0000 E_long   =         0.0000 Press    =        59.8762 
---------------- Step    13600 ----- CPU =    156.1907 (sec) ----------------
TotEng   =       -16.1993 KinEng   =        10.7593 Temp     =         7.1800 
PotEng   =       -26.9586 E_bond   =         0.0000 E_angle  =         0.0000 
E_dihed  =         0.0000 E_impro  =         0.0000 E_vdwl   =       -26.9586 
E_coul   =         0.0000 E_long   =         0.0000 Press    =        59.2943 
---------------- Step    13800 ----- CPU =    160.5082 (sec) ----------------
TotEng   =       -16.2061 KinEng   =        10.5880 Temp     =         7.0657 
PotEng   =       -26.7941 E_bond   =         0.0000 E_angle  =         0.0000 
E_dihed  =         0.0000 E_impro  =         0.0000 E_vdwl   =       -26.7941 
E_coul   =         0.0000 E_long   =         0.0000 Press    =        60.1500 
---------------- Step    14000 ----- CPU =    162.9832 (sec) ----------------
TotEng   =       -16.2147 KinEng   =        10.8407 Temp     =         7.2344 
PotEng   =       -27.0554 E_bond   =         0.0000 E_angle  =         0.0000 
E_dihed  =         0.0000 E_impro  =         0.0000 E_vdwl   =       -27.0554 
E_coul   =         0.0000 E_long   =         0.0000 Press    =        59.0107 
---------------- Step    14200 ----- CPU =    165.3772 (sec) ----------------
TotEng   =       -16.2188 KinEng   =        10.6496 Temp     =         7.1069 
PotEng   =       -26.8684 E_bond   =         0.0000 E_angle  =         0.0000 
E_dihed  =         0.0000 E_impro  =         0.0000 E_vdwl   =       -26.8684 
E_coul   =         0.0000 E_long   =         0.0000 Press    =        59.7448 
---------------- Step    14400 ----- CPU =    167.2550 (sec) ----------------
TotEng   =       -16.2298 KinEng   =        10.6156 Temp     =         7.0841 
PotEng   =       -26.8454 E_bond   =         0.0000 E_angle  =         0.0000 
E_dihed  =         0.0000 E_impro  =         0.0000 E_vdwl   =       -26.8454 
E_coul   =         0.0000 E_long   =         0.0000 Press    =        59.8872 
---------------- Step    14600 ----- CPU =    169.5979 (sec) ----------------
TotEng   =       -16.2362 KinEng   =        10.8367 Temp     =         7.2317 
PotEng   =       -27.0729 E_bond   =         0.0000 E_angle  =         0.0000 
E_dihed  =         0.0000 E_impro  =         0.0000 E_vdwl   =       -27.0729 
E_coul   =         0.0000 E_long   =         0.0000 Press    =        58.7981 
---------------- Step    14800 ----- CPU =    171.6463 (sec) ----------------
TotEng   =       -16.2451 KinEng   =        10.7755 Temp     =         7.1909 
PotEng   =       -27.0206 E_bond   =         0.0000 E_angle  =         0.0000 
E_dihed  =         0.0000 E_impro  =         0.0000 E_vdwl   =       -27.0206 
E_coul   =         0.0000 E_long   =         0.0000 Press    =        59.2262 
---------------- Step    15000 ----- CPU =    174.1477 (sec) ----------------
TotEng   =       -16.2515 KinEng   =        10.6069 Temp     =         7.0783 
PotEng   =       -26.8584 E_bond   =         0.0000 E_angle  =         0.0000 
E_dihed  =         0.0000 E_impro  =         0.0000 E_vdwl   =       -26.8584 
E_coul   =         0.0000 E_long   =         0.0000 Press    =        59.7417 
---------------- Step    15200 ----- CPU =    176.6369 (sec) ----------------
TotEng   =       -16.2591 KinEng   =        11.1343 Temp     =         7.4303 
PotEng   =       -27.3934 E_bond   =         0.0000 E_angle  =         0.0000 
E_dihed  =         0.0000 E_impro  =         0.0000 E_vdwl   =       -27.3934 
E_coul   =         0.0000 E_long   =         0.0000 Press    =        57.4409 
---------------- Step    15400 ----- CPU =    178.9778 (sec) ----------------
TotEng   =       -16.2679 KinEng   =        11.0244 Temp     =         7.3570 
PotEng   =       -27.2923 E_bond   =         0.0000 E_angle  =         0.0000 
E_dihed  =         0.0000 E_impro  =         0.0000 E_vdwl   =       -27.2923 
E_coul   =         0.0000 E_long   =         0.0000 Press    =        57.8744 
---------------- Step    15600 ----- CPU =    182.0930 (sec) ----------------
TotEng   =       -16.2738 KinEng   =        10.4655 Temp     =         6.9840 
PotEng   =       -26.7393 E_bond   =         0.0000 E_angle  =         0.0000 
E_dihed  =         0.0000 E_impro  =         0.0000 E_vdwl   =       -26.7393 
E_coul   =         0.0000 E_long   =         0.0000 Press    =        60.4042 
---------------- Step    15800 ----- CPU =    185.0944 (sec) ----------------
TotEng   =       -16.2828 KinEng   =        10.9792 Temp     =         7.3268 
PotEng   =       -27.2620 E_bond   =         0.0000 E_angle  =         0.0000 
E_dihed  =         0.0000 E_impro  =         0.0000 E_vdwl   =       -27.2620 
E_coul   =         0.0000 E_long   =         0.0000 Press    =        57.9739 
---------------- Step    16000 ----- CPU =    187.6602 (sec) ----------------
TotEng   =       -16.2931 KinEng   =        11.1374 Temp     =         7.4323 
PotEng   =       -27.4304 E_bond   =         0.0000 E_angle  =         0.0000 
E_dihed  =         0.0000 E_impro  =         0.0000 E_vdwl   =       -27.4304 
E_coul   =         0.0000 E_long   =         0.0000 Press    =        57.3759 
---------------- Step    16200 ----- CPU =    189.5386 (sec) ----------------
TotEng   =       -16.2975 KinEng   =        10.7702 Temp     =         7.1873 
PotEng   =       -27.0677 E_bond   =         0.0000 E_angle  =         0.0000 
E_dihed  =         0.0000 E_impro  =         0.0000 E_vdwl   =       -27.0677 
E_coul   =         0.0000 E_long   =         0.0000 Press    =        58.7313 
---------------- Step    16400 ----- CPU =    192.5345 (sec) ----------------
TotEng   =       -16.3017 KinEng   =        10.4664 Temp     =         6.9846 
PotEng   =       -26.7682 E_bond   =         0.0000 E_angle  =         0.0000 
E_dihed  =         0.0000 E_impro  =         0.0000 E_vdwl   =       -26.7682 
E_coul   =         0.0000 E_long   =         0.0000 Press    =        60.0489 
---------------- Step    16600 ----- CPU =    195.9396 (sec) ----------------
TotEng   =       -16.3161 KinEng   =        10.8454 Temp     =         7.2375 
PotEng   =       -27.1615 E_bond   =         0.0000 E_angle  =         0.0000 
E_dihed  =         0.0000 E_impro  =         0.0000 E_vdwl   =       -27.1615 
E_coul   =         0.0000 E_long   =         0.0000 Press    =        58.5210 
---------------- Step    16800 ----- CPU =    198.4757 (sec) ----------------
TotEng   =       -16.3217 KinEng   =        10.7094 Temp     =         7.1467 
PotEng   =       -27.0311 E_bond   =         0.0000 E_angle  =         0.0000 
E_dihed  =         0.0000 E_impro  =         0.0000 E_vdwl   =       -27.0311 
E_coul   =         0.0000 E_long   =         0.0000 Press    =        58.8315 
---------------- Step    17000 ----- CPU =    200.3713 (sec) ----------------
TotEng   =       -16.3316 KinEng   =        10.6534 Temp     =         7.1094 
PotEng   =       -26.9850 E_bond   =         0.0000 E_angle  =         0.0000 
E_dihed  =         0.0000 E_impro  =         0.0000 E_vdwl   =       -26.9850 
E_coul   =         0.0000 E_long   =         0.0000 Press    =        59.6022 
---------------- Step    17200 ----- CPU =    202.2125 (sec) ----------------
TotEng   =       -16.3384 KinEng   =        10.8603 Temp     =         7.2475 
PotEng   =       -27.1988 E_bond   =         0.0000 E_angle  =         0.0000 
E_dihed  =         0.0000 E_impro  =         0.0000 E_vdwl   =       -27.1988 
E_coul   =         0.0000 E_long   =         0.0000 Press    =        58.1872 
---------------- Step    17400 ----- CPU =    204.8192 (sec) ----------------
TotEng   =       -16.3465 KinEng   =        10.6998 Temp     =         7.1403 
PotEng   =       -27.0463 E_bond   =         0.0000 E_angle  =         0.0000 
E_dihed  =         0.0000 E_impro  =         0.0000 E_vdwl   =       -27.0463 
E_coul   =         0.0000 E_long   =         0.0000 Press    =        58.8828 
---------------- Step    17600 ----- CPU =    206.8062 (sec) ----------------
TotEng   =       -16.3549 KinEng   =        10.7986 Temp     =         7.2063 
PotEng   =       -27.1535 E_bond   =         0.0000 E_angle  =         0.0000 
E_dihed  =         0.0000 E_impro  =         0.0000 E_vdwl   =       -27.1535 
E_coul   =         0.0000 E_long   =         0.0000 Press    =        58.4100 
---------------- Step    17800 ----- CPU =    208.8314 (sec) ----------------
TotEng   =       -16.3622 KinEng   =        10.7922 Temp     =         7.2020 
PotEng   =       -27.1544 E_bond   =         0.0000 E_angle  =         0.0000 
E_dihed  =         0.0000 E_impro  =         0.0000 E_vdwl   =       -27.1544 
E_coul   =         0.0000 E_long   =         0.0000 Press    =        58.6422 
---------------- Step    18000 ----- CPU =    210.4998 (sec) ----------------
TotEng   =       -16.3695 KinEng   =        10.7768 Temp     =         7.1918 
PotEng   =       -27.1463 E_bond   =         0.0000 E_angle  =         0.0000 
E_dihed  =         0.0000 E_impro  =         0.0000 E_vdwl   =       -27.1463 
E_coul   =         0.0000 E_long   =         0.0000 Press    =        58.3157 
---------------- Step    18200 ----- CPU =    213.3209 (sec) ----------------
TotEng   =       -16.3760 KinEng   =        10.9651 Temp     =         7.3173 
PotEng   =       -27.3410 E_bond   =         0.0000 E_angle  =         0.0000 
E_dihed  =         0.0000 E_impro  =         0.0000 E_vdwl   =       -27.3410 
E_coul   =         0.0000 E_long   =         0.0000 Press    =        57.5808 
---------------- Step    18400 ----- CPU =    215.0652 (sec) ----------------
TotEng   =       -16.3878 KinEng   =        11.1172 Temp     =         7.4189 
PotEng   =       -27.5050 E_bond   =         0.0000 E_angle  =         0.0000 
E_dihed  =         0.0000 E_impro  =         0.0000 E_vdwl   =       -27.5050 
E_coul   =         0.0000 E_long   =         0.0000 Press    =        56.8239 
---------------- Step    18600 ----- CPU =    217.1691 (sec) ----------------
TotEng   =       -16.3960 KinEng   =        10.8067 Temp     =         7.2117 
PotEng   =       -27.2028 E_bond   =         0.0000 E_angle  =         0.0000 
E_dihed  =         0.0000 E_impro  =         0.0000 E_vdwl   =       -27.2028 
E_coul   =         0.0000 E_long   =         0.0000 Press    =        58.2282 
---------------- Step    18800 ----- CPU =    219.0313 (sec) ----------------
TotEng   =       -16.4014 KinEng   =        11.1461 Temp     =         7.4382 
PotEng   =       -27.5475 E_bond   =         0.0000 E_angle  =         0.0000 
E_dihed  =         0.0000 E_impro  =         0.0000 E_vdwl   =       -27.5475 
E_coul   =         0.0000 E_long   =         0.0000 Press    =        56.4499 
---------------- Step    19000 ----- CPU =    221.0757 (sec) ----------------
TotEng   =       -16.4094 KinEng   =        10.5819 Temp     =         7.0616 
PotEng   =       -26.9912 E_bond   =         0.0000 E_angle  =         0.0000 
E_dihed  =         0.0000 E_impro  =         0.0000 E_vdwl   =       -26.9912 
E_coul   =         0.0000 E_long   =         0.0000 Press    =        59.2186 
---------------- Step    19200 ----- CPU =    223.5426 (sec) ----------------
TotEng   =       -16.4189 KinEng   =        10.9807 Temp     =         7.3278 
PotEng   =       -27.3996 E_bond   =         0.0000 E_angle  =         0.0000 
E_dihed  =         0.0000 E_impro  =         0.0000 E_vdwl   =       -27.3996 
E_coul   =         0.0000 E_long   =         0.0000 Press    =        57.5822 
---------------- Step    19400 ----- CPU =    225.5201 (sec) ----------------
TotEng   =       -16.4255 KinEng   =        10.7764 Temp     =         7.1914 
PotEng   =       -27.2019 E_bond   =         0.0000 E_angle  =         0.0000 
E_dihed  =         0.0000 E_impro  =         0.0000 E_vdwl   =       -27.2019 
E_coul   =         0.0000 E_long   =         0.0000 Press    =        58.2779 
---------------- Step    19600 ----- CPU =    227.3235 (sec) ----------------
TotEng   =       -16.4301 KinEng   =        10.8156 Temp     =         7.2176 
PotEng   =       -27.2456 E_bond   =         0.0000 E_angle  =         0.0000 
E_dihed  =         0.0000 E_impro  =         0.0000 E_vdwl   =       -27.2456 
E_coul   =         0.0000 E_long   =         0.0000 Press    =        57.7048 
---------------- Step    19800 ----- CPU =    229.7262 (sec) ----------------
TotEng   =       -16.4387 KinEng   =        10.6816 Temp     =         7.1282 
PotEng   =       -27.1203 E_bond   =         0.0000 E_angle  =         0.0000 
E_dihed  =         0.0000 E_impro  =         0.0000 E_vdwl   =       -27.1203 
E_coul   =         0.0000 E_long   =         0.0000 Press    =        58.3658 
---------------- Step    20000 ----- CPU =    231.5339 (sec) ----------------
TotEng   =       -16.4472 KinEng   =        10.4156 Temp     =         6.9507 
PotEng   =       -26.8628 E_bond   =         0.0000 E_angle  =         0.0000 
E_dihed  =         0.0000 E_impro  =         0.0000 E_vdwl   =       -26.8628 
E_coul   =         0.0000 E_long   =         0.0000 Press    =        59.5399 
---------------- Step    20200 ----- CPU =    233.5233 (sec) ----------------
TotEng   =       -16.4562 KinEng   =        10.6283 Temp     =         7.0926 
PotEng   =       -27.0845 E_bond   =         0.0000 E_angle  =         0.0000 
E_dihed  =         0.0000 E_impro  =         0.0000 E_vdwl   =       -27.0845 
E_coul   =         0.0000 E_long   =         0.0000 Press    =        58.7767 
---------------- Step    20400 ----- CPU =    235.5875 (sec) ----------------
TotEng   =       -16.4638 KinEng   =        10.8085 Temp     =         7.2129 
PotEng   =       -27.2723 E_bond   =         0.0000 E_angle  =         0.0000 
E_dihed  =         0.0000 E_impro  =         0.0000 E_vdwl   =       -27.2723 
E_coul   =         0.0000 E_long   =         0.0000 Press    =        57.9646 
---------------- Step    20600 ----- CPU =    237.8296 (sec) ----------------
TotEng   =       -16.4713 KinEng   =        10.7035 Temp     =         7.1428 
PotEng   =       -27.1749 E_bond   =         0.0000 E_angle  =         0.0000 
E_dihed  =         0.0000 E_impro  =         0.0000 E_vdwl   =       -27.1749 
E_coul   =         0.0000 E_long   =         0.0000 Press    =        58.4756 
---------------- Step    20800 ----- CPU =    239.7247 (sec) ----------------
TotEng   =       -16.4748 KinEng   =        10.6169 Temp     =         7.0850 
PotEng   =       -27.0917 E_bond   =         0.0000 E_angle  =         0.0000 
E_dihed  =         0.0000 E_impro  =         0.0000 E_vdwl   =       -27.0917 
E_coul   =         0.0000 E_long   =         0.0000 Press    =        58.4730 
---------------- Step    21000 ----- CPU =    241.7293 (sec) ----------------
TotEng   =       -16.4825 KinEng   =        10.6348 Temp     =         7.0969 
PotEng   =       -27.1172 E_bond   =         0.0000 E_angle  =         0.0000 
E_dihed  =         0.0000 E_impro  =         0.0000 E_vdwl   =       -27.1172 
E_coul   =         0.0000 E_long   =         0.0000 Press    =        58.9453 
---------------- Step    21200 ----- CPU =    244.7013 (sec) ----------------
TotEng   =       -16.4931 KinEng   =        10.6704 Temp     =         7.1207 
PotEng   =       -27.1635 E_bond   =         0.0000 E_angle  =         0.0000 
E_dihed  =         0.0000 E_impro  =         0.0000 E_vdwl   =       -27.1635 
E_coul   =         0.0000 E_long   =         0.0000 Press    =        58.2557 
---------------- Step    21400 ----- CPU =    246.8563 (sec) ----------------
TotEng   =       -16.4993 KinEng   =        10.3501 Temp     =         6.9070 
PotEng   =       -26.8494 E_bond   =         0.0000 E_angle  =         0.0000 
E_dihed  =         0.0000 E_impro  =         0.0000 E_vdwl   =       -26.8494 
E_coul   =         0.0000 E_long   =         0.0000 Press    =        59.3881 
---------------- Step    21600 ----- CPU =    248.7115 (sec) ----------------
TotEng   =       -16.5025 KinEng   =        10.4651 Temp     =         6.9837 
PotEng   =       -26.9676 E_bond   =         0.0000 E_angle  =         0.0000 
E_dihed  =         0.0000 E_impro  =         0.0000 E_vdwl   =       -26.9676 
E_coul   =         0.0000 E_long   =         0.0000 Press    =        58.7581 
---------------- Step    21800 ----- CPU =    250.7263 (sec) ----------------
TotEng   =       -16.5149 KinEng   =        10.6263 Temp     =         7.0913 
PotEng   =       -27.1412 E_bond   =         0.0000 E_angle  =         0.0000 
E_dihed  =         0.0000 E_impro  =         0.0000 E_vdwl   =       -27.1412 
E_coul   =         0.0000 E_long   =         0.0000 Press    =        58.3189 
---------------- Step    22000 ----- CPU =    252.8933 (sec) ----------------
TotEng   =       -16.5177 KinEng   =        10.7128 Temp     =         7.1490 
PotEng   =       -27.2304 E_bond   =         0.0000 E_angle  =         0.0000 
E_dihed  =         0.0000 E_impro  =         0.0000 E_vdwl   =       -27.2304 
E_coul   =         0.0000 E_long   =         0.0000 Press    =        57.4701 
---------------- Step    22200 ----- CPU =    255.5382 (sec) ----------------
TotEng   =       -16.5290 KinEng   =        10.4953 Temp     =         7.0039 
PotEng   =       -27.0243 E_bond   =         0.0000 E_angle  =         0.0000 
E_dihed  =         0.0000 E_impro  =         0.0000 E_vdwl   =       -27.0243 
E_coul   =         0.0000 E_long   =         0.0000 Press    =        58.7879 
---------------- Step    22400 ----- CPU =    257.2982 (sec) ----------------
TotEng   =       -16.5356 KinEng   =        10.3262 Temp     =         6.8910 
PotEng   =       -26.8618 E_bond   =         0.0000 E_angle  =         0.0000 
E_dihed  =         0.0000 E_impro  =         0.0000 E_vdwl   =       -26.8618 
E_coul   =         0.0000 E_long   =         0.0000 Press    =        59.4301 
---------------- Step    22600 ----- CPU =    259.1152 (sec) ----------------
TotEng   =       -16.5414 KinEng   =        10.5398 Temp     =         7.0336 
PotEng   =       -27.0812 E_bond   =         0.0000 E_angle  =         0.0000 
E_dihed  =         0.0000 E_impro  =         0.0000 E_vdwl   =       -27.0812 
E_coul   =         0.0000 E_long   =         0.0000 Press    =        58.2717 
---------------- Step    22800 ----- CPU =    260.9706 (sec) ----------------
TotEng   =       -16.5501 KinEng   =        10.8384 Temp     =         7.2328 
PotEng   =       -27.3884 E_bond   =         0.0000 E_angle  =         0.0000 
E_dihed  =         0.0000 E_impro  =         0.0000 E_vdwl   =       -27.3884 
E_coul   =         0.0000 E_long   =         0.0000 Press    =        57.1614 
---------------- Step    23000 ----- CPU =    262.8951 (sec) ----------------
TotEng   =       -16.5591 KinEng   =        10.4547 Temp     =         6.9768 
PotEng   =       -27.0138 E_bond   =         0.0000 E_angle  =         0.0000 
E_dihed  =         0.0000 E_impro  =         0.0000 E_vdwl   =       -27.0138 
E_coul   =         0.0000 E_long   =         0.0000 Press    =        59.1213 
---------------- Step    23200 ----- CPU =    265.4590 (sec) ----------------
TotEng   =       -16.5659 KinEng   =        10.7033 Temp     =         7.1427 
PotEng   =       -27.2692 E_bond   =         0.0000 E_angle  =         0.0000 
E_dihed  =         0.0000 E_impro  =         0.0000 E_vdwl   =       -27.2692 
E_coul   =         0.0000 E_long   =         0.0000 Press    =        58.0057 
---------------- Step    23400 ----- CPU =    267.4047 (sec) ----------------
TotEng   =       -16.5701 KinEng   =        10.7442 Temp     =         7.1700 
PotEng   =       -27.3143 E_bond   =         0.0000 E_angle  =         0.0000 
E_dihed  =         0.0000 E_impro  =         0.0000 E_vdwl   =       -27.3143 
E_coul   =         0.0000 E_long   =         0.0000 Press    =        57.5211 
---------------- Step    23600 ----- CPU =    270.3642 (sec) ----------------
TotEng   =       -16.5791 KinEng   =        10.8235 Temp     =         7.2229 
PotEng   =       -27.4027 E_bond   =         0.0000 E_angle  =         0.0000 
E_dihed  =         0.0000 E_impro  =         0.0000 E_vdwl   =       -27.4027 
E_coul   =         0.0000 E_long   =         0.0000 Press    =        57.2366 
---------------- Step    23800 ----- CPU =    274.7928 (sec) ----------------
TotEng   =       -16.5842 KinEng   =        10.5781 Temp     =         7.0591 
PotEng   =       -27.1623 E_bond   =         0.0000 E_angle  =         0.0000 
E_dihed  =         0.0000 E_impro  =         0.0000 E_vdwl   =       -27.1623 
E_coul   =         0.0000 E_long   =         0.0000 Press    =        58.3072 
---------------- Step    24000 ----- CPU =    279.4863 (sec) ----------------
TotEng   =       -16.5935 KinEng   =        10.6405 Temp     =         7.1008 
PotEng   =       -27.2340 E_bond   =         0.0000 E_angle  =         0.0000 
E_dihed  =         0.0000 E_impro  =         0.0000 E_vdwl   =       -27.2340 
E_coul   =         0.0000 E_long   =         0.0000 Press    =        58.0906 
---------------- Step    24200 ----- CPU =    283.7362 (sec) ----------------
TotEng   =       -16.6004 KinEng   =        10.8895 Temp     =         7.2669 
PotEng   =       -27.4899 E_bond   =         0.0000 E_angle  =         0.0000 
E_dihed  =         0.0000 E_impro  =         0.0000 E_vdwl   =       -27.4899 
E_coul   =         0.0000 E_long   =         0.0000 Press    =        56.8485 
---------------- Step    24400 ----- CPU =    287.6699 (sec) ----------------
TotEng   =       -16.6076 KinEng   =        10.6856 Temp     =         7.1309 
PotEng   =       -27.2932 E_bond   =         0.0000 E_angle  =         0.0000 
E_dihed  =         0.0000 E_impro  =         0.0000 E_vdwl   =       -27.2932 
E_coul   =         0.0000 E_long   =         0.0000 Press    =        57.9459 
---------------- Step    24600 ----- CPU =    292.7743 (sec) ----------------
TotEng   =       -16.6123 KinEng   =        10.7781 Temp     =         7.1926 
PotEng   =       -27.3904 E_bond   =         0.0000 E_angle  =         0.0000 
E_dihed  =         0.0000 E_impro  =         0.0000 E_vdwl   =       -27.3904 
E_coul   =         0.0000 E_long   =         0.0000 Press    =        57.4357 
---------------- Step    24800 ----- CPU =    297.5659 (sec) ----------------
TotEng   =       -16.6196 KinEng   =        10.6652 Temp     =         7.1173 
PotEng   =       -27.2848 E_bond   =         0.0000 E_angle  =         0.0000 
E_dihed  =         0.0000 E_impro  =         0.0000 E_vdwl   =       -27.2848 
E_coul   =         0.0000 E_long   =         0.0000 Press    =        57.5713 
---------------- Step    25000 ----- CPU =    302.3832 (sec) ----------------
TotEng   =       -16.6263 KinEng   =        10.7834 Temp     =         7.1961 
PotEng   =       -27.4096 E_bond   =         0.0000 E_angle  =         0.0000 
E_dihed  =         0.0000 E_impro  =         0.0000 E_vdwl   =       -27.4096 
E_coul   =         0.0000 E_long   =         0.0000 Press    =        57.0663 
---------------- Step    25200 ----- CPU =    306.7495 (sec) ----------------
TotEng   =       -16.6307 KinEng   =        10.3573 Temp     =         6.9118 
PotEng   =       -26.9880 E_bond   =         0.0000 E_angle  =         0.0000 
E_dihed  =         0.0000 E_impro  =         0.0000 E_vdwl   =       -26.9880 
E_coul   =         0.0000 E_long   =         0.0000 Press    =        59.0215 
---------------- Step    25400 ----- CPU =    311.5380 (sec) ----------------
TotEng   =       -16.6403 KinEng   =        10.9593 Temp     =         7.3135 
PotEng   =       -27.5996 E_bond   =         0.0000 E_angle  =         0.0000 
E_dihed  =         0.0000 E_impro  =         0.0000 E_vdwl   =       -27.5996 
E_coul   =         0.0000 E_long   =         0.0000 Press    =        56.1705 
---------------- Step    25600 ----- CPU =    316.0480 (sec) ----------------
TotEng   =       -16.6482 KinEng   =        10.5723 Temp     =         7.0553 
PotEng   =       -27.2205 E_bond   =         0.0000 E_angle  =         0.0000 
E_dihed  =         0.0000 E_impro  =         0.0000 E_vdwl   =       -27.2205 
E_coul   =         0.0000 E_long   =         0.0000 Press    =        57.9587 
---------------- Step    25800 ----- CPU =    320.7958 (sec) ----------------
TotEng   =       -16.6528 KinEng   =        10.7518 Temp     =         7.1750 
PotEng   =       -27.4046 E_bond   =         0.0000 E_angle  =         0.0000 
E_dihed  =         0.0000 E_impro  =         0.0000 E_vdwl   =       -27.4046 
E_coul   =         0.0000 E_long   =         0.0000 Press    =        57.3212 
---------------- Step    26000 ----- CPU =    325.1350 (sec) ----------------
TotEng   =       -16.6597 KinEng   =        10.7467 Temp     =         7.1717 
PotEng   =       -27.4064 E_bond   =         0.0000 E_angle  =         0.0000 
E_dihed  =         0.0000 E_impro  =         0.0000 E_vdwl   =       -27.4064 
E_coul   =         0.0000 E_long   =         0.0000 Press    =        57.0864 
---------------- Step    26200 ----- CPU =    330.4563 (sec) ----------------
TotEng   =       -16.6633 KinEng   =        10.6955 Temp     =         7.1375 
PotEng   =       -27.3588 E_bond   =         0.0000 E_angle  =         0.0000 
E_dihed  =         0.0000 E_impro  =         0.0000 E_vdwl   =       -27.3588 
E_coul   =         0.0000 E_long   =         0.0000 Press    =        57.4293 
---------------- Step    26400 ----- CPU =    334.8127 (sec) ----------------
TotEng   =       -16.6721 KinEng   =        10.6251 Temp     =         7.0905 
PotEng   =       -27.2972 E_bond   =         0.0000 E_angle  =         0.0000 
E_dihed  =         0.0000 E_impro  =         0.0000 E_vdwl   =       -27.2972 
E_coul   =         0.0000 E_long   =         0.0000 Press    =        57.4170 
---------------- Step    26600 ----- CPU =    339.7455 (sec) ----------------
TotEng   =       -16.6796 KinEng   =        10.9859 Temp     =         7.3313 
PotEng   =       -27.6655 E_bond   =         0.0000 E_angle  =         0.0000 
E_dihed  =         0.0000 E_impro  =         0.0000 E_vdwl   =       -27.6655 
E_coul   =         0.0000 E_long   =         0.0000 Press    =        55.8123 
---------------- Step    26800 ----- CPU =    344.2953 (sec) ----------------
TotEng   =       -16.6858 KinEng   =        10.6637 Temp     =         7.1162 
PotEng   =       -27.3495 E_bond   =         0.0000 E_angle  =         0.0000 
E_dihed  =         0.0000 E_impro  =         0.0000 E_vdwl   =       -27.3495 
E_coul   =         0.0000 E_long   =         0.0000 Press    =        57.3207 
---------------- Step    27000 ----- CPU =    349.2604 (sec) ----------------
TotEng   =       -16.6935 KinEng   =        10.6950 Temp     =         7.1371 
PotEng   =       -27.3885 E_bond   =         0.0000 E_angle  =         0.0000 
E_dihed  =         0.0000 E_impro  =         0.0000 E_vdwl   =       -27.3885 
E_coul   =         0.0000 E_long   =         0.0000 Press    =        57.3102 
---------------- Step    27200 ----- CPU =    353.6445 (sec) ----------------
TotEng   =       -16.6982 KinEng   =        10.3583 Temp     =         6.9124 
PotEng   =       -27.0565 E_bond   =         0.0000 E_angle  =         0.0000 
E_dihed  =         0.0000 E_impro  =         0.0000 E_vdwl   =       -27.0565 
E_coul   =         0.0000 E_long   =         0.0000 Press    =        58.8022 
---------------- Step    27400 ----- CPU =    358.0611 (sec) ----------------
TotEng   =       -16.7026 KinEng   =        10.2452 Temp     =         6.8370 
PotEng   =       -26.9479 E_bond   =         0.0000 E_angle  =         0.0000 
E_dihed  =         0.0000 E_impro  =         0.0000 E_vdwl   =       -26.9479 
E_coul   =         0.0000 E_long   =         0.0000 Press    =        58.9067 
---------------- Step    27600 ----- CPU =    363.1581 (sec) ----------------
TotEng   =       -16.7129 KinEng   =        10.5212 Temp     =         7.0211 
PotEng   =       -27.2341 E_bond   =         0.0000 E_angle  =         0.0000 
E_dihed  =         0.0000 E_impro  =         0.0000 E_vdwl   =       -27.2341 
E_coul   =         0.0000 E_long   =         0.0000 Press    =        58.0123 
---------------- Step    27800 ----- CPU =    367.9442 (sec) ----------------
TotEng   =       -16.7197 KinEng   =        10.5502 Temp     =         7.0405 
PotEng   =       -27.2699 E_bond   =         0.0000 E_angle  =         0.0000 
E_dihed  =         0.0000 E_impro  =         0.0000 E_vdwl   =       -27.2699 
E_coul   =         0.0000 E_long   =         0.0000 Press    =        57.8304 
---------------- Step    28000 ----- CPU =    372.7563 (sec) ----------------
TotEng   =       -16.7220 KinEng   =        10.5559 Temp     =         7.0443 
PotEng   =       -27.2780 E_bond   =         0.0000 E_angle  =         0.0000 
E_dihed  =         0.0000 E_impro  =         0.0000 E_vdwl   =       -27.2780 
E_coul   =         0.0000 E_long   =         0.0000 Press    =        57.4780 
---------------- Step    28200 ----- CPU =    377.0801 (sec) ----------------
TotEng   =       -16.7278 KinEng   =        10.1719 Temp     =         6.7880 
PotEng   =       -26.8997 E_bond   =         0.0000 E_angle  =         0.0000 
E_dihed  =         0.0000 E_impro  =         0.0000 E_vdwl   =       -26.8997 
E_coul   =         0.0000 E_long   =         0.0000 Press    =        59.0737 
---------------- Step    28400 ----- CPU =    381.3706 (sec) ----------------
TotEng   =       -16.7351 KinEng   =        10.7629 Temp     =         7.1825 
PotEng   =       -27.4981 E_bond   =         0.0000 E_angle  =         0.0000 
E_dihed  =         0.0000 E_impro  =         0.0000 E_vdwl   =       -27.4981 
E_coul   =         0.0000 E_long   =         0.0000 Press    =        56.3759 
---------------- Step    28600 ----- CPU =    386.7893 (sec) ----------------
TotEng   =       -16.7393 KinEng   =        10.3220 Temp     =         6.8882 
PotEng   =       -27.0613 E_bond   =         0.0000 E_angle  =         0.0000 
E_dihed  =         0.0000 E_impro  =         0.0000 E_vdwl   =       -27.0613 
E_coul   =         0.0000 E_long   =         0.0000 Press    =        58.3440 
---------------- Step    28800 ----- CPU =    391.1563 (sec) ----------------
TotEng   =       -16.7484 KinEng   =        10.6047 Temp     =         7.0769 
PotEng   =       -27.3531 E_bond   =         0.0000 E_angle  =         0.0000 
E_dihed  =         0.0000 E_impro  =         0.0000 E_vdwl   =       -27.3531 
E_coul   =         0.0000 E_long   =         0.0000 Press    =        57.2875 
---------------- Step    29000 ----- CPU =    397.1390 (sec) ----------------
TotEng   =       -16.7583 KinEng   =        10.3764 Temp     =         6.9245 
PotEng   =       -27.1347 E_bond   =         0.0000 E_angle  =         0.0000 
E_dihed  =         0.0000 E_impro  =         0.0000 E_vdwl   =       -27.1347 
E_coul   =         0.0000 E_long   =         0.0000 Press    =        58.1561 
---------------- Step    29200 ----- CPU =    401.9050 (sec) ----------------
TotEng   =       -16.7637 KinEng   =        10.7743 Temp     =         7.1901 
PotEng   =       -27.5381 E_bond   =         0.0000 E_angle  =         0.0000 
E_dihed  =         0.0000 E_impro  =         0.0000 E_vdwl   =       -27.5381 
E_coul   =         0.0000 E_long   =         0.0000 Press    =        56.6552 
---------------- Step    29400 ----- CPU =    406.2045 (sec) ----------------
TotEng   =       -16.7664 KinEng   =        10.5036 Temp     =         7.0094 
PotEng   =       -27.2700 E_bond   =         0.0000 E_angle  =         0.0000 
E_dihed  =         0.0000 E_impro  =         0.0000 E_vdwl   =       -27.2700 
E_coul   =         0.0000 E_long   =         0.0000 Press    =        57.3639 
---------------- Step    29600 ----- CPU =    410.7222 (sec) ----------------
TotEng   =       -16.7729 KinEng   =        10.6833 Temp     =         7.1294 
PotEng   =       -27.4563 E_bond   =         0.0000 E_angle  =         0.0000 
E_dihed  =         0.0000 E_impro  =         0.0000 E_vdwl   =       -27.4563 
E_coul   =         0.0000 E_long   =         0.0000 Press    =        56.9196 
---------------- Step    29800 ----- CPU =    415.7856 (sec) ----------------
TotEng   =       -16.7806 KinEng   =        10.4685 Temp     =         6.9860 
PotEng   =       -27.2491 E_bond   =         0.0000 E_angle  =         0.0000 
E_dihed  =         0.0000 E_impro  =         0.0000 E_vdwl   =       -27.2491 
E_coul   =         0.0000 E_long   =         0.0000 Press    =        57.8232 
---------------- Step    30000 ----- CPU =    420.8365 (sec) ----------------
TotEng   =       -16.7895 KinEng   =        10.5969 Temp     =         7.0717 
PotEng   =       -27.3865 E_bond   =         0.0000 E_angle  =         0.0000 
E_dihed  =         0.0000 E_impro  =         0.0000 E_vdwl   =       -27.3865 
E_coul   =         0.0000 E_long   =         0.0000 Press    =        57.1589 
---------------- Step    30200 ----- CPU =    424.8654 (sec) ----------------
TotEng   =       -16.7942 KinEng   =        10.6231 Temp     =         7.0892 
PotEng   =       -27.4174 E_bond   =         0.0000 E_angle  =         0.0000 
E_dihed  =         0.0000 E_impro  =         0.0000 E_vdwl   =       -27.4174 
E_coul   =         0.0000 E_long   =         0.0000 Press    =        57.1130 
---------------- Step    30400 ----- CPU =    430.4357 (sec) ----------------
TotEng   =       -16.8015 KinEng   =        10.5542 Temp     =         7.0432 
PotEng   =       -27.3557 E_bond   =         0.0000 E_angle  =         0.0000 
E_dihed  =         0.0000 E_impro  =         0.0000 E_vdwl   =       -27.3557 
E_coul   =         0.0000 E_long   =         0.0000 Press    =        57.0722 
---------------- Step    30600 ----- CPU =    435.7314 (sec) ----------------
TotEng   =       -16.8070 KinEng   =        10.5230 Temp     =         7.0224 
PotEng   =       -27.3300 E_bond   =         0.0000 E_angle  =         0.0000 
E_dihed  =         0.0000 E_impro  =         0.0000 E_vdwl   =       -27.3300 
E_coul   =         0.0000 E_long   =         0.0000 Press    =        57.5861 
---------------- Step    30800 ----- CPU =    439.7497 (sec) ----------------
TotEng   =       -16.8156 KinEng   =        10.9288 Temp     =         7.2931 
PotEng   =       -27.7443 E_bond   =         0.0000 E_angle  =         0.0000 
E_dihed  =         0.0000 E_impro  =         0.0000 E_vdwl   =       -27.7443 
E_coul   =         0.0000 E_long   =         0.0000 Press    =        55.6639 
---------------- Step    31000 ----- CPU =    444.7249 (sec) ----------------
TotEng   =       -16.8221 KinEng   =        10.6660 Temp     =         7.1178 
PotEng   =       -27.4881 E_bond   =         0.0000 E_angle  =         0.0000 
E_dihed  =         0.0000 E_impro  =         0.0000 E_vdwl   =       -27.4881 
E_coul   =         0.0000 E_long   =         0.0000 Press    =        56.5435 
---------------- Step    31200 ----- CPU =    449.1176 (sec) ----------------
TotEng   =       -16.8244 KinEng   =        10.4515 Temp     =         6.9746 
PotEng   =       -27.2759 E_bond   =         0.0000 E_angle  =         0.0000 
E_dihed  =         0.0000 E_impro  =         0.0000 E_vdwl   =       -27.2759 
E_coul   =         0.0000 E_long   =         0.0000 Press    =        57.6661 
---------------- Step    31400 ----- CPU =    453.6182 (sec) ----------------
TotEng   =       -16.8300 KinEng   =        10.3855 Temp     =         6.9306 
PotEng   =       -27.2156 E_bond   =         0.0000 E_angle  =         0.0000 
E_dihed  =         0.0000 E_impro  =         0.0000 E_vdwl   =       -27.2156 
E_coul   =         0.0000 E_long   =         0.0000 Press    =        57.6239 
---------------- Step    31600 ----- CPU =    459.1053 (sec) ----------------
TotEng   =       -16.8371 KinEng   =        10.5913 Temp     =         7.0679 
PotEng   =       -27.4284 E_bond   =         0.0000 E_angle  =         0.0000 
E_dihed  =         0.0000 E_impro  =         0.0000 E_vdwl   =       -27.4284 
E_coul   =         0.0000 E_long   =         0.0000 Press    =        56.8637 
---------------- Step    31800 ----- CPU =    463.1489 (sec) ----------------
TotEng   =       -16.8485 KinEng   =        10.6074 Temp     =         7.0787 
PotEng   =       -27.4559 E_bond   =         0.0000 E_angle  =         0.0000 
E_dihed  =         0.0000 E_impro  =         0.0000 E_vdwl   =       -27.4559 
E_coul   =         0.0000 E_long   =         0.0000 Press    =        56.9051 
---------------- Step    32000 ----- CPU =    467.8483 (sec) ----------------
TotEng   =       -16.8507 KinEng   =        10.2799 Temp     =         6.8601 
PotEng   =       -27.1305 E_bond   =         0.0000 E_angle  =         0.0000 
E_dihed  =         0.0000 E_impro  =         0.0000 E_vdwl   =       -27.1305 
E_coul   =         0.0000 E_long   =         0.0000 Press    =        58.2932 
---------------- Step    32200 ----- CPU =    471.5616 (sec) ----------------
TotEng   =       -16.8581 KinEng   =        10.6314 Temp     =         7.0947 
PotEng   =       -27.4895 E_bond   =         0.0000 E_angle  =         0.0000 
E_dihed  =         0.0000 E_impro  =         0.0000 E_vdwl   =       -27.4895 
E_coul   =         0.0000 E_long   =         0.0000 Press    =        56.7508 
---------------- Step    32400 ----- CPU =    475.8934 (sec) ----------------
TotEng   =       -16.8651 KinEng   =        10.1871 Temp     =         6.7982 
PotEng   =       -27.0522 E_bond   =         0.0000 E_angle  =         0.0000 
E_dihed  =         0.0000 E_impro  =         0.0000 E_vdwl   =       -27.0522 
E_coul   =         0.0000 E_long   =         0.0000 Press    =        58.6289 
---------------- Step    32600 ----- CPU =    480.9474 (sec) ----------------
TotEng   =       -16.8712 KinEng   =        10.3309 Temp     =         6.8941 
PotEng   =       -27.2020 E_bond   =         0.0000 E_angle  =         0.0000 
E_dihed  =         0.0000 E_impro  =         0.0000 E_vdwl   =       -27.2020 
E_coul   =         0.0000 E_long   =         0.0000 Press    =        57.9548 
---------------- Step    32800 ----- CPU =    485.7304 (sec) ----------------
TotEng   =       -16.8794 KinEng   =        10.4088 Temp     =         6.9461 
PotEng   =       -27.2882 E_bond   =         0.0000 E_angle  =         0.0000 
E_dihed  =         0.0000 E_impro  =         0.0000 E_vdwl   =       -27.2882 
E_coul   =         0.0000 E_long   =         0.0000 Press    =        57.8908 
---------------- Step    33000 ----- CPU =    490.8105 (sec) ----------------
TotEng   =       -16.8876 KinEng   =        10.7803 Temp     =         7.1940 
PotEng   =       -27.6679 E_bond   =         0.0000 E_angle  =         0.0000 
E_dihed  =         0.0000 E_impro  =         0.0000 E_vdwl   =       -27.6679 
E_coul   =         0.0000 E_long   =         0.0000 Press    =        55.6885 
---------------- Step    33200 ----- CPU =    495.7946 (sec) ----------------
TotEng   =       -16.8914 KinEng   =        10.2665 Temp     =         6.8512 
PotEng   =       -27.1579 E_bond   =         0.0000 E_angle  =         0.0000 
E_dihed  =         0.0000 E_impro  =         0.0000 E_vdwl   =       -27.1579 
E_coul   =         0.0000 E_long   =         0.0000 Press    =        58.1529 
---------------- Step    33400 ----- CPU =    500.3437 (sec) ----------------
TotEng   =       -16.8965 KinEng   =        10.4947 Temp     =         7.0035 
PotEng   =       -27.3912 E_bond   =         0.0000 E_angle  =         0.0000 
E_dihed  =         0.0000 E_impro  =         0.0000 E_vdwl   =       -27.3912 
E_coul   =         0.0000 E_long   =         0.0000 Press    =        57.3451 
---------------- Step    33600 ----- CPU =    504.5044 (sec) ----------------
TotEng   =       -16.9067 KinEng   =        10.2013 Temp     =         6.8077 
PotEng   =       -27.1080 E_bond   =         0.0000 E_angle  =         0.0000 
E_dihed  =         0.0000 E_impro  =         0.0000 E_vdwl   =       -27.1080 
E_coul   =         0.0000 E_long   =         0.0000 Press    =        58.3589 
---------------- Step    33800 ----- CPU =    509.1742 (sec) ----------------
TotEng   =       -16.9121 KinEng   =        10.5183 Temp     =         7.0192 
PotEng   =       -27.4304 E_bond   =         0.0000 E_angle  =         0.0000 
E_dihed  =         0.0000 E_impro  =         0.0000 E_vdwl   =       -27.4304 
E_coul   =         0.0000 E_long   =         0.0000 Press    =        56.9106 
---------------- Step    34000 ----- CPU =    514.1990 (sec) ----------------
TotEng   =       -16.9193 KinEng   =        10.4422 Temp     =         6.9684 
PotEng   =       -27.3615 E_bond   =         0.0000 E_angle  =         0.0000 
E_dihed  =         0.0000 E_impro  =         0.0000 E_vdwl   =       -27.3615 
E_coul   =         0.0000 E_long   =         0.0000 Press    =        57.1465 
---------------- Step    34200 ----- CPU =    519.1580 (sec) ----------------
TotEng   =       -16.9251 KinEng   =        10.3594 Temp     =         6.9131 
PotEng   =       -27.2844 E_bond   =         0.0000 E_angle  =         0.0000 
E_dihed  =         0.0000 E_impro  =         0.0000 E_vdwl   =       -27.2844 
E_coul   =         0.0000 E_long   =         0.0000 Press    =        57.5316 
---------------- Step    34400 ----- CPU =    523.4252 (sec) ----------------
TotEng   =       -16.9302 KinEng   =         9.9795 Temp     =         6.6597 
PotEng   =       -26.9097 E_bond   =         0.0000 E_angle  =         0.0000 
E_dihed  =         0.0000 E_impro  =         0.0000 E_vdwl   =       -26.9097 
E_coul   =         0.0000 E_long   =         0.0000 Press    =        59.0009 
---------------- Step    34600 ----- CPU =    527.8896 (sec) ----------------
TotEng   =       -16.9341 KinEng   =        10.4948 Temp     =         7.0036 
PotEng   =       -27.4289 E_bond   =         0.0000 E_angle  =         0.0000 
E_dihed  =         0.0000 E_impro  =         0.0000 E_vdwl   =       -27.4289 
E_coul   =         0.0000 E_long   =         0.0000 Press    =        56.9270 
---------------- Step    34800 ----- CPU =    532.8082 (sec) ----------------
TotEng   =       -16.9466 KinEng   =        10.8163 Temp     =         7.2181 
PotEng   =       -27.7629 E_bond   =         0.0000 E_angle  =         0.0000 
E_dihed  =         0.0000 E_impro  =         0.0000 E_vdwl   =       -27.7629 
E_coul   =         0.0000 E_long   =         0.0000 Press    =        55.3837 
---------------- Step    35000 ----- CPU =    537.9728 (sec) ----------------
TotEng   =       -16.9504 KinEng   =        10.6019 Temp     =         7.0750 
PotEng   =       -27.5523 E_bond   =         0.0000 E_angle  =         0.0000 
E_dihed  =         0.0000 E_impro  =         0.0000 E_vdwl   =       -27.5523 
E_coul   =         0.0000 E_long   =         0.0000 Press    =        56.5513 
---------------- Step    35200 ----- CPU =    542.7857 (sec) ----------------
TotEng   =       -16.9594 KinEng   =        10.6058 Temp     =         7.0776 
PotEng   =       -27.5651 E_bond   =         0.0000 E_angle  =         0.0000 
E_dihed  =         0.0000 E_impro  =         0.0000 E_vdwl   =       -27.5651 
E_coul   =         0.0000 E_long   =         0.0000 Press    =        56.1005 
---------------- Step    35400 ----- CPU =    547.6563 (sec) ----------------
TotEng   =       -16.9629 KinEng   =        10.6888 Temp     =         7.1330 
PotEng   =       -27.6517 E_bond   =         0.0000 E_angle  =         0.0000 
E_dihed  =         0.0000 E_impro  =         0.0000 E_vdwl   =       -27.6517 
E_coul   =         0.0000 E_long   =         0.0000 Press    =        56.0790 
---------------- Step    35600 ----- CPU =    552.3537 (sec) ----------------
TotEng   =       -16.9742 KinEng   =        10.3162 Temp     =         6.8844 
PotEng   =       -27.2905 E_bond   =         0.0000 E_angle  =         0.0000 
E_dihed  =         0.0000 E_impro  =         0.0000 E_vdwl   =       -27.2905 
E_coul   =         0.0000 E_long   =         0.0000 Press    =        57.3896 
---------------- Step    35800 ----- CPU =    557.3376 (sec) ----------------
TotEng   =       -16.9764 KinEng   =        10.6106 Temp     =         7.0808 
PotEng   =       -27.5870 E_bond   =         0.0000 E_angle  =         0.0000 
E_dihed  =         0.0000 E_impro  =         0.0000 E_vdwl   =       -27.5870 
E_coul   =         0.0000 E_long   =         0.0000 Press    =        56.0229 
---------------- Step    36000 ----- CPU =    562.0533 (sec) ----------------
TotEng   =       -16.9850 KinEng   =        10.4501 Temp     =         6.9737 
PotEng   =       -27.4351 E_bond   =         0.0000 E_angle  =         0.0000 
E_dihed  =         0.0000 E_impro  =         0.0000 E_vdwl   =       -27.4351 
E_coul   =         0.0000 E_long   =         0.0000 Press    =        56.8931 
---------------- Step    36200 ----- CPU =    566.7542 (sec) ----------------
TotEng   =       -16.9877 KinEng   =        10.1726 Temp     =         6.7885 
PotEng   =       -27.1603 E_bond   =         0.0000 E_angle  =         0.0000 
E_dihed  =         0.0000 E_impro  =         0.0000 E_vdwl   =       -27.1603 
E_coul   =         0.0000 E_long   =         0.0000 Press    =        57.9480 
---------------- Step    36400 ----- CPU =    570.7992 (sec) ----------------
TotEng   =       -17.0010 KinEng   =        10.1495 Temp     =         6.7731 
PotEng   =       -27.1505 E_bond   =         0.0000 E_angle  =         0.0000 
E_dihed  =         0.0000 E_impro  =         0.0000 E_vdwl   =       -27.1505 
E_coul   =         0.0000 E_long   =         0.0000 Press    =        57.9125 
---------------- Step    36600 ----- CPU =    575.8359 (sec) ----------------
TotEng   =       -17.0085 KinEng   =        10.9519 Temp     =         7.3086 
PotEng   =       -27.9605 E_bond   =         0.0000 E_angle  =         0.0000 
E_dihed  =         0.0000 E_impro  =         0.0000 E_vdwl   =       -27.9605 
E_coul   =         0.0000 E_long   =         0.0000 Press    =        54.1691 
---------------- Step    36800 ----- CPU =    581.2852 (sec) ----------------
TotEng   =       -17.0142 KinEng   =        10.5280 Temp     =         7.0257 
PotEng   =       -27.5422 E_bond   =         0.0000 E_angle  =         0.0000 
E_dihed  =         0.0000 E_impro  =         0.0000 E_vdwl   =       -27.5422 
E_coul   =         0.0000 E_long   =         0.0000 Press    =        56.1536 
---------------- Step    37000 ----- CPU =    586.1014 (sec) ----------------
TotEng   =       -17.0232 KinEng   =        10.6267 Temp     =         7.0916 
PotEng   =       -27.6500 E_bond   =         0.0000 E_angle  =         0.0000 
E_dihed  =         0.0000 E_impro  =         0.0000 E_vdwl   =       -27.6500 
E_coul   =         0.0000 E_long   =         0.0000 Press    =        55.9024 
---------------- Step    37200 ----- CPU =    591.4500 (sec) ----------------
TotEng   =       -17.0281 KinEng   =        10.1389 Temp     =         6.7661 
PotEng   =       -27.1670 E_bond   =         0.0000 E_angle  =         0.0000 
E_dihed  =         0.0000 E_impro  =         0.0000 E_vdwl   =       -27.1670 
E_coul   =         0.0000 E_long   =         0.0000 Press    =        57.8487 
---------------- Step    37400 ----- CPU =    595.6181 (sec) ----------------
TotEng   =       -17.0319 KinEng   =        10.2460 Temp     =         6.8375 
PotEng   =       -27.2779 E_bond   =         0.0000 E_angle  =         0.0000 
E_dihed  =         0.0000 E_impro  =         0.0000 E_vdwl   =       -27.2779 
E_coul   =         0.0000 E_long   =         0.0000 Press    =        57.5253 
---------------- Step    37600 ----- CPU =    600.7139 (sec) ----------------
TotEng   =       -17.0418 KinEng   =        10.6626 Temp     =         7.1155 
PotEng   =       -27.7044 E_bond   =         0.0000 E_angle  =         0.0000 
E_dihed  =         0.0000 E_impro  =         0.0000 E_vdwl   =       -27.7044 
E_coul   =         0.0000 E_long   =         0.0000 Press    =        55.6038 
---------------- Step    37800 ----- CPU =    605.5829 (sec) ----------------
TotEng   =       -17.0477 KinEng   =        10.0824 Temp     =         6.7283 
PotEng   =       -27.1301 E_bond   =         0.0000 E_angle  =         0.0000 
E_dihed  =         0.0000 E_impro  =         0.0000 E_vdwl   =       -27.1301 
E_coul   =         0.0000 E_long   =         0.0000 Press    =        58.3121 
---------------- Step    38000 ----- CPU =    610.5629 (sec) ----------------
TotEng   =       -17.0558 KinEng   =        10.4485 Temp     =         6.9726 
PotEng   =       -27.5043 E_bond   =         0.0000 E_angle  =         0.0000 
E_dihed  =         0.0000 E_impro  =         0.0000 E_vdwl   =       -27.5043 
E_coul   =         0.0000 E_long   =         0.0000 Press    =        56.5082 
---------------- Step    38200 ----- CPU =    614.9473 (sec) ----------------
TotEng   =       -17.0650 KinEng   =        10.7316 Temp     =         7.1615 
PotEng   =       -27.7966 E_bond   =         0.0000 E_angle  =         0.0000 
[...]
---------------- Step  1991200 ----- CPU =  21074.3823 (sec) ----------------
TotEng   =       -31.6955 KinEng   =         4.2768 Temp     =         2.8540 
PotEng   =       -35.9723 E_bond   =         0.0000 E_angle  =         0.0000 
E_dihed  =         0.0000 E_impro  =         0.0000 E_vdwl   =       -35.9723 
E_coul   =         0.0000 E_long   =         0.0000 Press    =         8.5806 
---------------- Step  1991400 ----- CPU =  21076.0207 (sec) ----------------
TotEng   =       -31.6966 KinEng   =         4.3446 Temp     =         2.8993 
PotEng   =       -36.0412 E_bond   =         0.0000 E_angle  =         0.0000 
E_dihed  =         0.0000 E_impro  =         0.0000 E_vdwl   =       -36.0412 
E_coul   =         0.0000 E_long   =         0.0000 Press    =         8.1674 
---------------- Step  1991600 ----- CPU =  21077.6632 (sec) ----------------
TotEng   =       -31.6943 KinEng   =         4.4676 Temp     =         2.9814 
PotEng   =       -36.1619 E_bond   =         0.0000 E_angle  =         0.0000 
E_dihed  =         0.0000 E_impro  =         0.0000 E_vdwl   =       -36.1619 
E_coul   =         0.0000 E_long   =         0.0000 Press    =         7.7018 
---------------- Step  1991800 ----- CPU =  21079.3103 (sec) ----------------
TotEng   =       -31.6941 KinEng   =         4.3619 Temp     =         2.9109 
PotEng   =       -36.0560 E_bond   =         0.0000 E_angle  =         0.0000 
E_dihed  =         0.0000 E_impro  =         0.0000 E_vdwl   =       -36.0560 
E_coul   =         0.0000 E_long   =         0.0000 Press    =         8.2322 
---------------- Step  1992000 ----- CPU =  21080.9456 (sec) ----------------
TotEng   =       -31.6959 KinEng   =         4.5472 Temp     =         3.0345 
PotEng   =       -36.2431 E_bond   =         0.0000 E_angle  =         0.0000 
E_dihed  =         0.0000 E_impro  =         0.0000 E_vdwl   =       -36.2431 
E_coul   =         0.0000 E_long   =         0.0000 Press    =         7.2725 
---------------- Step  1992200 ----- CPU =  21082.6390 (sec) ----------------
TotEng   =       -31.6928 KinEng   =         4.4084 Temp     =         2.9418 
PotEng   =       -36.1012 E_bond   =         0.0000 E_angle  =         0.0000 
E_dihed  =         0.0000 E_impro  =         0.0000 E_vdwl   =       -36.1012 
E_coul   =         0.0000 E_long   =         0.0000 Press    =         7.9052 
---------------- Step  1992400 ----- CPU =  21084.2751 (sec) ----------------
TotEng   =       -31.6936 KinEng   =         4.4186 Temp     =         2.9486 
PotEng   =       -36.1121 E_bond   =         0.0000 E_angle  =         0.0000 
E_dihed  =         0.0000 E_impro  =         0.0000 E_vdwl   =       -36.1121 
E_coul   =         0.0000 E_long   =         0.0000 Press    =         8.0671 
---------------- Step  1992600 ----- CPU =  21085.9267 (sec) ----------------
TotEng   =       -31.6919 KinEng   =         4.5244 Temp     =         3.0193 
PotEng   =       -36.2163 E_bond   =         0.0000 E_angle  =         0.0000 
E_dihed  =         0.0000 E_impro  =         0.0000 E_vdwl   =       -36.2163 
E_coul   =         0.0000 E_long   =         0.0000 Press    =         7.5126 
---------------- Step  1992800 ----- CPU =  21087.5661 (sec) ----------------
TotEng   =       -31.6881 KinEng   =         4.3020 Temp     =         2.8709 
PotEng   =       -35.9901 E_bond   =         0.0000 E_angle  =         0.0000 
E_dihed  =         0.0000 E_impro  =         0.0000 E_vdwl   =       -35.9901 
E_coul   =         0.0000 E_long   =         0.0000 Press    =         8.5111 
---------------- Step  1993000 ----- CPU =  21089.2367 (sec) ----------------
TotEng   =       -31.6909 KinEng   =         4.4442 Temp     =         2.9657 
PotEng   =       -36.1351 E_bond   =         0.0000 E_angle  =         0.0000 
E_dihed  =         0.0000 E_impro  =         0.0000 E_vdwl   =       -36.1351 
E_coul   =         0.0000 E_long   =         0.0000 Press    =         7.8264 
---------------- Step  1993200 ----- CPU =  21090.8990 (sec) ----------------
TotEng   =       -31.6927 KinEng   =         4.3640 Temp     =         2.9122 
PotEng   =       -36.0567 E_bond   =         0.0000 E_angle  =         0.0000 
E_dihed  =         0.0000 E_impro  =         0.0000 E_vdwl   =       -36.0567 
E_coul   =         0.0000 E_long   =         0.0000 Press    =         8.0995 
---------------- Step  1993400 ----- CPU =  21092.5724 (sec) ----------------
TotEng   =       -31.6935 KinEng   =         4.5577 Temp     =         3.0415 
PotEng   =       -36.2512 E_bond   =         0.0000 E_angle  =         0.0000 
E_dihed  =         0.0000 E_impro  =         0.0000 E_vdwl   =       -36.2512 
E_coul   =         0.0000 E_long   =         0.0000 Press    =         7.3616 
---------------- Step  1993600 ----- CPU =  21094.2411 (sec) ----------------
TotEng   =       -31.6891 KinEng   =         4.5122 Temp     =         3.0111 
PotEng   =       -36.2013 E_bond   =         0.0000 E_angle  =         0.0000 
E_dihed  =         0.0000 E_impro  =         0.0000 E_vdwl   =       -36.2013 
E_coul   =         0.0000 E_long   =         0.0000 Press    =         7.3828 
---------------- Step  1993800 ----- CPU =  21095.9026 (sec) ----------------
TotEng   =       -31.6884 KinEng   =         4.5518 Temp     =         3.0376 
PotEng   =       -36.2402 E_bond   =         0.0000 E_angle  =         0.0000 
E_dihed  =         0.0000 E_impro  =         0.0000 E_vdwl   =       -36.2402 
E_coul   =         0.0000 E_long   =         0.0000 Press    =         7.3501 
---------------- Step  1994000 ----- CPU =  21097.5740 (sec) ----------------
TotEng   =       -31.6886 KinEng   =         4.4243 Temp     =         2.9525 
PotEng   =       -36.1129 E_bond   =         0.0000 E_angle  =         0.0000 
E_dihed  =         0.0000 E_impro  =         0.0000 E_vdwl   =       -36.1129 
E_coul   =         0.0000 E_long   =         0.0000 Press    =         7.8750 
---------------- Step  1994200 ----- CPU =  21099.2585 (sec) ----------------
TotEng   =       -31.6871 KinEng   =         4.5275 Temp     =         3.0214 
PotEng   =       -36.2146 E_bond   =         0.0000 E_angle  =         0.0000 
E_dihed  =         0.0000 E_impro  =         0.0000 E_vdwl   =       -36.2146 
E_coul   =         0.0000 E_long   =         0.0000 Press    =         7.4042 
---------------- Step  1994400 ----- CPU =  21100.9248 (sec) ----------------
TotEng   =       -31.6866 KinEng   =         4.3780 Temp     =         2.9216 
PotEng   =       -36.0646 E_bond   =         0.0000 E_angle  =         0.0000 
E_dihed  =         0.0000 E_impro  =         0.0000 E_vdwl   =       -36.0646 
E_coul   =         0.0000 E_long   =         0.0000 Press    =         8.3712 
---------------- Step  1994600 ----- CPU =  21102.6028 (sec) ----------------
TotEng   =       -31.6882 KinEng   =         4.4605 Temp     =         2.9766 
PotEng   =       -36.1487 E_bond   =         0.0000 E_angle  =         0.0000 
E_dihed  =         0.0000 E_impro  =         0.0000 E_vdwl   =       -36.1487 
E_coul   =         0.0000 E_long   =         0.0000 Press    =         7.7777 
---------------- Step  1994800 ----- CPU =  21104.2844 (sec) ----------------
TotEng   =       -31.6892 KinEng   =         4.3850 Temp     =         2.9263 
PotEng   =       -36.0743 E_bond   =         0.0000 E_angle  =         0.0000 
E_dihed  =         0.0000 E_impro  =         0.0000 E_vdwl   =       -36.0743 
E_coul   =         0.0000 E_long   =         0.0000 Press    =         8.0878 
---------------- Step  1995000 ----- CPU =  21105.9558 (sec) ----------------
TotEng   =       -31.6879 KinEng   =         4.4949 Temp     =         2.9996 
PotEng   =       -36.1828 E_bond   =         0.0000 E_angle  =         0.0000 
E_dihed  =         0.0000 E_impro  =         0.0000 E_vdwl   =       -36.1828 
E_coul   =         0.0000 E_long   =         0.0000 Press    =         7.6473 
---------------- Step  1995200 ----- CPU =  21107.6116 (sec) ----------------
TotEng   =       -31.6817 KinEng   =         4.3742 Temp     =         2.9190 
PotEng   =       -36.0558 E_bond   =         0.0000 E_angle  =         0.0000 
E_dihed  =         0.0000 E_impro  =         0.0000 E_vdwl   =       -36.0558 
E_coul   =         0.0000 E_long   =         0.0000 Press    =         8.2265 
---------------- Step  1995400 ----- CPU =  21109.3135 (sec) ----------------
TotEng   =       -31.6845 KinEng   =         4.3582 Temp     =         2.9083 
PotEng   =       -36.0427 E_bond   =         0.0000 E_angle  =         0.0000 
E_dihed  =         0.0000 E_impro  =         0.0000 E_vdwl   =       -36.0427 
E_coul   =         0.0000 E_long   =         0.0000 Press    =         8.3111 
---------------- Step  1995600 ----- CPU =  21110.9894 (sec) ----------------
TotEng   =       -31.6820 KinEng   =         4.3210 Temp     =         2.8836 
PotEng   =       -36.0030 E_bond   =         0.0000 E_angle  =         0.0000 
E_dihed  =         0.0000 E_impro  =         0.0000 E_vdwl   =       -36.0030 
E_coul   =         0.0000 E_long   =         0.0000 Press    =         8.4829 
---------------- Step  1995800 ----- CPU =  21112.6987 (sec) ----------------
TotEng   =       -31.6825 KinEng   =         4.5116 Temp     =         3.0107 
PotEng   =       -36.1941 E_bond   =         0.0000 E_angle  =         0.0000 
E_dihed  =         0.0000 E_impro  =         0.0000 E_vdwl   =       -36.1941 
E_coul   =         0.0000 E_long   =         0.0000 Press    =         7.4720 
---------------- Step  1996000 ----- CPU =  21114.4153 (sec) ----------------
TotEng   =       -31.6833 KinEng   =         4.4224 Temp     =         2.9512 
PotEng   =       -36.1057 E_bond   =         0.0000 E_angle  =         0.0000 
E_dihed  =         0.0000 E_impro  =         0.0000 E_vdwl   =       -36.1057 
E_coul   =         0.0000 E_long   =         0.0000 Press    =         8.1051 
---------------- Step  1996200 ----- CPU =  21116.1058 (sec) ----------------
TotEng   =       -31.6841 KinEng   =         4.4005 Temp     =         2.9366 
PotEng   =       -36.0845 E_bond   =         0.0000 E_angle  =         0.0000 
E_dihed  =         0.0000 E_impro  =         0.0000 E_vdwl   =       -36.0845 
E_coul   =         0.0000 E_long   =         0.0000 Press    =         8.1449 
---------------- Step  1996400 ----- CPU =  21117.8039 (sec) ----------------
TotEng   =       -31.6833 KinEng   =         4.5095 Temp     =         3.0093 
PotEng   =       -36.1927 E_bond   =         0.0000 E_angle  =         0.0000 
E_dihed  =         0.0000 E_impro  =         0.0000 E_vdwl   =       -36.1927 
E_coul   =         0.0000 E_long   =         0.0000 Press    =         7.6319 
---------------- Step  1996600 ----- CPU =  21119.5089 (sec) ----------------
TotEng   =       -31.6799 KinEng   =         4.4732 Temp     =         2.9851 
PotEng   =       -36.1530 E_bond   =         0.0000 E_angle  =         0.0000 
E_dihed  =         0.0000 E_impro  =         0.0000 E_vdwl   =       -36.1530 
E_coul   =         0.0000 E_long   =         0.0000 Press    =         7.7058 
---------------- Step  1996800 ----- CPU =  21121.1931 (sec) ----------------
TotEng   =       -31.6811 KinEng   =         4.3696 Temp     =         2.9160 
PotEng   =       -36.0507 E_bond   =         0.0000 E_angle  =         0.0000 
E_dihed  =         0.0000 E_impro  =         0.0000 E_vdwl   =       -36.0507 
E_coul   =         0.0000 E_long   =         0.0000 Press    =         8.1949 
---------------- Step  1997000 ----- CPU =  21122.8645 (sec) ----------------
TotEng   =       -31.6793 KinEng   =         4.3508 Temp     =         2.9034 
PotEng   =       -36.0301 E_bond   =         0.0000 E_angle  =         0.0000 
E_dihed  =         0.0000 E_impro  =         0.0000 E_vdwl   =       -36.0301 
E_coul   =         0.0000 E_long   =         0.0000 Press    =         8.3460 
---------------- Step  1997200 ----- CPU =  21124.5504 (sec) ----------------
TotEng   =       -31.6809 KinEng   =         4.2897 Temp     =         2.8627 
PotEng   =       -35.9706 E_bond   =         0.0000 E_angle  =         0.0000 
E_dihed  =         0.0000 E_impro  =         0.0000 E_vdwl   =       -35.9706 
E_coul   =         0.0000 E_long   =         0.0000 Press    =         8.6543 
---------------- Step  1997400 ----- CPU =  21126.2232 (sec) ----------------
TotEng   =       -31.6763 KinEng   =         4.2876 Temp     =         2.8612 
PotEng   =       -35.9639 E_bond   =         0.0000 E_angle  =         0.0000 
E_dihed  =         0.0000 E_impro  =         0.0000 E_vdwl   =       -35.9639 
E_coul   =         0.0000 E_long   =         0.0000 Press    =         8.5961 
---------------- Step  1997600 ----- CPU =  21127.8967 (sec) ----------------
TotEng   =       -31.6772 KinEng   =         4.5160 Temp     =         3.0136 
PotEng   =       -36.1931 E_bond   =         0.0000 E_angle  =         0.0000 
E_dihed  =         0.0000 E_impro  =         0.0000 E_vdwl   =       -36.1931 
E_coul   =         0.0000 E_long   =         0.0000 Press    =         7.5263 
---------------- Step  1997800 ----- CPU =  21129.5634 (sec) ----------------
TotEng   =       -31.6776 KinEng   =         4.3894 Temp     =         2.9292 
PotEng   =       -36.0670 E_bond   =         0.0000 E_angle  =         0.0000 
E_dihed  =         0.0000 E_impro  =         0.0000 E_vdwl   =       -36.0670 
E_coul   =         0.0000 E_long   =         0.0000 Press    =         8.1166 
---------------- Step  1998000 ----- CPU =  21131.2205 (sec) ----------------
TotEng   =       -31.6771 KinEng   =         4.3333 Temp     =         2.8917 
PotEng   =       -36.0104 E_bond   =         0.0000 E_angle  =         0.0000 
E_dihed  =         0.0000 E_impro  =         0.0000 E_vdwl   =       -36.0104 
E_coul   =         0.0000 E_long   =         0.0000 Press    =         8.4947 
---------------- Step  1998200 ----- CPU =  21132.8583 (sec) ----------------
TotEng   =       -31.6760 KinEng   =         4.2803 Temp     =         2.8564 
PotEng   =       -35.9563 E_bond   =         0.0000 E_angle  =         0.0000 
E_dihed  =         0.0000 E_impro  =         0.0000 E_vdwl   =       -35.9563 
E_coul   =         0.0000 E_long   =         0.0000 Press    =         8.8178 
---------------- Step  1998400 ----- CPU =  21134.5479 (sec) ----------------
TotEng   =       -31.6790 KinEng   =         4.3865 Temp     =         2.9272 
PotEng   =       -36.0654 E_bond   =         0.0000 E_angle  =         0.0000 
E_dihed  =         0.0000 E_impro  =         0.0000 E_vdwl   =       -36.0654 
E_coul   =         0.0000 E_long   =         0.0000 Press    =         8.1609 
---------------- Step  1998600 ----- CPU =  21136.1991 (sec) ----------------
TotEng   =       -31.6749 KinEng   =         4.2599 Temp     =         2.8427 
PotEng   =       -35.9347 E_bond   =         0.0000 E_angle  =         0.0000 
E_dihed  =         0.0000 E_impro  =         0.0000 E_vdwl   =       -35.9347 
E_coul   =         0.0000 E_long   =         0.0000 Press    =         8.8385 
---------------- Step  1998800 ----- CPU =  21137.8465 (sec) ----------------
TotEng   =       -31.6736 KinEng   =         4.4443 Temp     =         2.9658 
PotEng   =       -36.1179 E_bond   =         0.0000 E_angle  =         0.0000 
E_dihed  =         0.0000 E_impro  =         0.0000 E_vdwl   =       -36.1179 
E_coul   =         0.0000 E_long   =         0.0000 Press    =         7.8768 
---------------- Step  1999000 ----- CPU =  21139.5317 (sec) ----------------
TotEng   =       -31.6739 KinEng   =         4.3584 Temp     =         2.9085 
PotEng   =       -36.0323 E_bond   =         0.0000 E_angle  =         0.0000 
E_dihed  =         0.0000 E_impro  =         0.0000 E_vdwl   =       -36.0323 
E_coul   =         0.0000 E_long   =         0.0000 Press    =         8.3321 
---------------- Step  1999200 ----- CPU =  21141.1665 (sec) ----------------
TotEng   =       -31.6730 KinEng   =         4.4755 Temp     =         2.9866 
PotEng   =       -36.1485 E_bond   =         0.0000 E_angle  =         0.0000 
E_dihed  =         0.0000 E_impro  =         0.0000 E_vdwl   =       -36.1485 
E_coul   =         0.0000 E_long   =         0.0000 Press    =         7.6924 
---------------- Step  1999400 ----- CPU =  21142.8252 (sec) ----------------
TotEng   =       -31.6754 KinEng   =         4.4435 Temp     =         2.9653 
PotEng   =       -36.1190 E_bond   =         0.0000 E_angle  =         0.0000 
E_dihed  =         0.0000 E_impro  =         0.0000 E_vdwl   =       -36.1190 
E_coul   =         0.0000 E_long   =         0.0000 Press    =         7.9906 
---------------- Step  1999600 ----- CPU =  21144.5175 (sec) ----------------
TotEng   =       -31.6715 KinEng   =         4.3291 Temp     =         2.8889 
PotEng   =       -36.0006 E_bond   =         0.0000 E_angle  =         0.0000 
E_dihed  =         0.0000 E_impro  =         0.0000 E_vdwl   =       -36.0006 
E_coul   =         0.0000 E_long   =         0.0000 Press    =         8.3693 
---------------- Step  1999800 ----- CPU =  21146.1615 (sec) ----------------
TotEng   =       -31.6712 KinEng   =         4.3833 Temp     =         2.9252 
PotEng   =       -36.0546 E_bond   =         0.0000 E_angle  =         0.0000 
E_dihed  =         0.0000 E_impro  =         0.0000 E_vdwl   =       -36.0546 
E_coul   =         0.0000 E_long   =         0.0000 Press    =         8.2429 
adapt lambda = 1
---------------- Step  2000000 ----- CPU =  21147.8071 (sec) ----------------
TotEng   =       -31.6707 KinEng   =         4.3077 Temp     =         2.8747 
PotEng   =       -35.9784 E_bond   =         0.0000 E_angle  =         0.0000 
E_dihed  =         0.0000 E_impro  =         0.0000 E_vdwl   =       -35.9784 
E_coul   =         0.0000 E_long   =         0.0000 Press    =         8.6806 
Loop time of 21147.8 on 1 procs for 2000000 steps with 1001 atoms

Performance: 8171.059 tau/day, 94.572 timesteps/s
85.1% CPU use with 1 MPI tasks x no OpenMP threads

MPI task timing breakdown:
Section |  min time  |  avg time  |  max time  |%varavg| %total
---------------------------------------------------------------
Pair    | 20276      | 20276      | 20276      |   0.0 | 95.88
Bond    | 18.642     | 18.642     | 18.642     |   0.0 |  0.09
Neigh   | 43.074     | 43.074     | 43.074     |   0.0 |  0.20
Comm    | 451.31     | 451.31     | 451.31     |   0.0 |  2.13
Output  | 25.051     | 25.051     | 25.051     |   0.0 |  0.12
Modify  | 238.01     | 238.01     | 238.01     |   0.0 |  1.13
Other   |            | 95.36      |            |       |  0.45

Nlocal:    1001 ave 1001 max 1001 min
Histogram: 1 0 0 0 0 0 0 0 0 0
Nghost:    7007 ave 7007 max 7007 min
Histogram: 1 0 0 0 0 0 0 0 0 0
Neighs:    263745 ave 263745 max 263745 min
Histogram: 1 0 0 0 0 0 0 0 0 0

Total # of neighbors = 263745
Ave neighs/atom = 263.482
Ave special neighs/atom = 0
Neighbor list builds = 1597
Dangerous builds = 0


# ----------------- Run Section -----------------

# The lines above define the system you want to simulate.
# What you do next is up to you.
# Typically a user would minimize and equilibrate
# the system using commands similar to the following:
#  ----   examples   ----
#
#  -- minimize --
# minimize 1.0e-5 1.0e-7 1000 10000
# (Note: Some fixes, for example "shake", interfere with the minimize command,
#        You can use the "unfix" command to disable them before minimization.)
#  -- declare time step for normal MD --
# timestep 1.0
#  -- run at constant pressure (Nose-Hoover)--
# fix   fxnpt all npt temp 300.0 300.0 100.0 iso 1.0 1.0 1000.0 drag 1.0
#  -- ALTERNATELY, run at constant volume (Nose-Hoover) --
# fix   fxnvt all nvt temp 300.0 300.0 500.0 tchain 1
#  -- ALTERNATELY, run at constant volume using Langevin dynamics. --
#  -- (This is good for sparse CG polymers in implicit solvent.)   --
# fix fxLAN all langevin 300.0 300.0 5000 48279
# fix fxNVE all nve  #(<--needed by fix langevin)
#  -- Now, finally run the simulation --
# run   50000
#  ---- (end of examples) ----

Total wall time: 6:19:43
